 Entering Gaussian System, Link 0=g16
 Initial command:
 /home/hongchang/data/software/Gaussian/g16/l1.exe "/home/hongchang/data/software/Gaussian/g16/scratch/Gau-2652647.inp" -scrdir="/home/hongchang/data/software/Gaussian/g16/scratch/"
 Entering Link 1 = /home/hongchang/data/software/Gaussian/g16/l1.exe PID=   2652656.
  
 Copyright (c) 1988,1990,1992,1993,1995,1998,2003,2009,2016,
            Gaussian, Inc.  All Rights Reserved.
  
 This is part of the Gaussian(R) 16 program.  It is based on
 the Gaussian(R) 09 system (copyright 2009, Gaussian, Inc.),
 the Gaussian(R) 03 system (copyright 2003, Gaussian, Inc.),
 the Gaussian(R) 98 system (copyright 1998, Gaussian, Inc.),
 the Gaussian(R) 94 system (copyright 1995, Gaussian, Inc.),
 the Gaussian 92(TM) system (copyright 1992, Gaussian, Inc.),
 the Gaussian 90(TM) system (copyright 1990, Gaussian, Inc.),
 the Gaussian 88(TM) system (copyright 1988, Gaussian, Inc.),
 the Gaussian 86(TM) system (copyright 1986, Carnegie Mellon
 University), and the Gaussian 82(TM) system (copyright 1983,
 Carnegie Mellon University). Gaussian is a federally registered
 trademark of Gaussian, Inc.
  
 This software contains proprietary and confidential information,
 including trade secrets, belonging to Gaussian, Inc.
  
 This software is provided under written license and may be
 used, copied, transmitted, or stored only in accord with that
 written license.
  
 The following legend is applicable only to US Government
 contracts under FAR:
  
                    RESTRICTED RIGHTS LEGEND
  
 Use, reproduction and disclosure by the US Government is
 subject to restrictions as set forth in subparagraphs (a)
 and (c) of the Commercial Computer Software - Restricted
 Rights clause in FAR 52.227-19.
  
 Gaussian, Inc.
 340 Quinnipiac St., Bldg. 40, Wallingford CT 06492
  
  
 ---------------------------------------------------------------
 Warning -- This program may not be used in any manner that
 competes with the business of Gaussian, Inc. or will provide
 assistance to any competitor of Gaussian, Inc.  The licensee
 of this program is prohibited from giving any competitor of
 Gaussian, Inc. access to this program.  By using this program,
 the user acknowledges that Gaussian, Inc. is engaged in the
 business of creating and licensing software in the field of
 computational chemistry and represents and warrants to the
 licensee that it is not a competitor of Gaussian, Inc. and that
 it will not use this program in any manner prohibited above.
 ---------------------------------------------------------------
  

 Cite this work as:
 Gaussian 16, Revision A.03,
 M. J. Frisch, G. W. Trucks, H. B. Schlegel, G. E. Scuseria, 
 M. A. Robb, J. R. Cheeseman, G. Scalmani, V. Barone, 
 G. A. Petersson, H. Nakatsuji, X. Li, M. Caricato, A. V. Marenich, 
 J. Bloino, B. G. Janesko, R. Gomperts, B. Mennucci, H. P. Hratchian, 
 J. V. Ortiz, A. F. Izmaylov, J. L. Sonnenberg, D. Williams-Young, 
 F. Ding, F. Lipparini, F. Egidi, J. Goings, B. Peng, A. Petrone, 
 T. Henderson, D. Ranasinghe, V. G. Zakrzewski, J. Gao, N. Rega, 
 G. Zheng, W. Liang, M. Hada, M. Ehara, K. Toyota, R. Fukuda, 
 J. Hasegawa, M. Ishida, T. Nakajima, Y. Honda, O. Kitao, H. Nakai, 
 T. Vreven, K. Throssell, J. A. Montgomery, Jr., J. E. Peralta, 
 F. Ogliaro, M. J. Bearpark, J. J. Heyd, E. N. Brothers, K. N. Kudin, 
 V. N. Staroverov, T. A. Keith, R. Kobayashi, J. Normand, 
 K. Raghavachari, A. P. Rendell, J. C. Burant, S. S. Iyengar, 
 J. Tomasi, M. Cossi, J. M. Millam, M. Klene, C. Adamo, R. Cammi, 
 J. W. Ochterski, R. L. Martin, K. Morokuma, O. Farkas, 
 J. B. Foresman, and D. J. Fox, Gaussian, Inc., Wallingford CT, 2016.
 
 ******************************************
 Gaussian 16:  ES64L-G16RevA.03 25-Dec-2016
                23-Jul-2025 
 ******************************************
 %nproc=112
 Will use up to  112 processors via shared memory.
 %mem=650GB
 %chk=01_03.chk
 ----------------------------------------------------------------------
 # opt(TS,noeigen,calcall,maxstep=15) freq b3lyp/6-311g(d,p) em=gd3bj s
 crf(solvent=Cis-Decalin)
 ----------------------------------------------------------------------
 1/5=1,8=15,10=4,11=1,18=20,26=3,38=1/1,3;
 2/9=110,12=2,17=6,18=5,40=1/2;
 3/5=4,6=6,7=101,11=2,25=1,30=1,70=2201,71=2,72=99,74=-5,124=41,140=1/1,2,3;
 4//1;
 5/5=2,38=5,53=99/2;
 8/6=4,10=90,11=11/1;
 11/6=1,8=1,9=11,15=111,16=1/1,2,10;
 10/6=1/2;
 6/7=2,8=2,9=2,10=2,18=1,28=1/1;
 7/10=1,25=1/1,2,3,16;
 1/5=1,8=15,10=4,11=1,18=20,26=3/3(3);
 2/9=110/2;
 7/8=1,9=1,25=1,44=-1/16;
 99//99;
 2/9=110/2;
 3/5=4,6=6,7=101,11=2,25=1,30=1,70=2205,71=2,72=99,74=-5,124=41,140=1/1,2,3;
 4/5=5,16=3,69=1/1;
 5/5=2,38=5,53=99/2;
 8/6=4,10=90,11=11/1;
 11/6=1,8=1,9=11,15=111,16=1/1,2,10;
 10/6=1/2;
 7/10=1,25=1/1,2,3,16;
 1/5=1,8=15,10=4,11=1,18=20,26=3/3(-8);
 2/9=110/2;
 6/7=2,8=2,9=2,10=2,18=1,19=2,28=1/1;
 7/8=1,9=1,25=1,44=-1/16;
 99//99;
 -----
 01_03
 -----
 Symbolic Z-matrix:
 Charge =  0 Multiplicity = 1
 C                    -2.22269   0.61962  -0.42712 
 C                    -2.12154  -0.77785  -0.38926 
 C                    -1.03981  -1.128     0.44773 
 C                     0.60908  -0.74644  -0.80748 
 C                     0.61567   0.66458  -0.95439 
 C                    -1.26071   1.17455   0.42103 
 C                     1.7351    1.20434  -0.19026 
 C                     2.42339   0.20995   0.41107 
 C                     1.85489  -1.12361  -0.00634 
 C                    -0.77784   0.07751   1.32543 
 H                    -2.86589   1.18156  -1.0956 
 H                    -2.66414  -1.46361  -1.02984 
 H                    -0.85006  -2.14162   0.7872 
 H                     0.28446  -1.40007  -1.60667 
 H                     0.14478   1.19728  -1.76731 
 H                    -1.1649    2.2287    0.6528 
 H                     1.94217   2.26504  -0.09332 
 H                     3.25253   0.32378   1.09954 
 H                     1.66671  -1.79586   0.83983 
 H                     2.55955  -1.65241  -0.66546 
 H                    -1.44108   0.01943   2.20361 
 H                     0.24514   0.19055   1.68872 
 
 Add virtual bond connecting atoms C4         and C3         Dist= 3.98D+00.

 GradGradGradGradGradGradGradGradGradGradGradGradGradGradGradGradGradGrad
 Berny optimization.
 Initialization pass.
                           ----------------------------
                           !    Initial Parameters    !
                           ! (Angstroms and Degrees)  !
 --------------------------                            --------------------------
 ! Name  Definition              Value          Derivative Info.                !
 --------------------------------------------------------------------------------
 ! R1    R(1,2)                  1.4016         calculate D2E/DX2 analytically  !
 ! R2    R(1,6)                  1.3974         calculate D2E/DX2 analytically  !
 ! R3    R(1,11)                 1.0846         calculate D2E/DX2 analytically  !
 ! R4    R(2,3)                  1.4118         calculate D2E/DX2 analytically  !
 ! R5    R(2,12)                 1.084          calculate D2E/DX2 analytically  !
 ! R6    R(3,4)                  2.1071         calculate D2E/DX2 analytically  !
 ! R7    R(3,10)                 1.514          calculate D2E/DX2 analytically  !
 ! R8    R(3,13)                 1.0857         calculate D2E/DX2 analytically  !
 ! R9    R(4,5)                  1.4187         calculate D2E/DX2 analytically  !
 ! R10   R(4,9)                  1.5284         calculate D2E/DX2 analytically  !
 ! R11   R(4,14)                 1.0823         calculate D2E/DX2 analytically  !
 ! R12   R(5,7)                  1.4589         calculate D2E/DX2 analytically  !
 ! R13   R(5,15)                 1.08           calculate D2E/DX2 analytically  !
 ! R14   R(6,10)                 1.5015         calculate D2E/DX2 analytically  !
 ! R15   R(6,16)                 1.0836         calculate D2E/DX2 analytically  !
 ! R16   R(7,8)                  1.3506         calculate D2E/DX2 analytically  !
 ! R17   R(7,17)                 1.0851         calculate D2E/DX2 analytically  !
 ! R18   R(8,9)                  1.5086         calculate D2E/DX2 analytically  !
 ! R19   R(8,18)                 1.0837         calculate D2E/DX2 analytically  !
 ! R20   R(9,19)                 1.097          calculate D2E/DX2 analytically  !
 ! R21   R(9,20)                 1.1003         calculate D2E/DX2 analytically  !
 ! R22   R(10,21)                1.102          calculate D2E/DX2 analytically  !
 ! R23   R(10,22)                1.0914         calculate D2E/DX2 analytically  !
 ! A1    A(2,1,6)              109.2607         calculate D2E/DX2 analytically  !
 ! A2    A(2,1,11)             125.1703         calculate D2E/DX2 analytically  !
 ! A3    A(6,1,11)             125.2109         calculate D2E/DX2 analytically  !
 ! A4    A(1,2,3)              108.5769         calculate D2E/DX2 analytically  !
 ! A5    A(1,2,12)             125.3565         calculate D2E/DX2 analytically  !
 ! A6    A(3,2,12)             125.2368         calculate D2E/DX2 analytically  !
 ! A7    A(2,3,4)              101.6248         calculate D2E/DX2 analytically  !
 ! A8    A(2,3,10)             106.187          calculate D2E/DX2 analytically  !
 ! A9    A(2,3,13)             123.4244         calculate D2E/DX2 analytically  !
 ! A10   A(4,3,10)              93.7697         calculate D2E/DX2 analytically  !
 ! A11   A(4,3,13)             102.6244         calculate D2E/DX2 analytically  !
 ! A12   A(10,3,13)            122.1331         calculate D2E/DX2 analytically  !
 ! A13   A(3,4,5)              104.207          calculate D2E/DX2 analytically  !
 ! A14   A(3,4,9)              106.3141         calculate D2E/DX2 analytically  !
 ! A15   A(3,4,14)              95.4975         calculate D2E/DX2 analytically  !
 ! A16   A(5,4,9)              107.2136         calculate D2E/DX2 analytically  !
 ! A17   A(5,4,14)             121.7097         calculate D2E/DX2 analytically  !
 ! A18   A(9,4,14)             118.849          calculate D2E/DX2 analytically  !
 ! A19   A(4,5,7)              108.5002         calculate D2E/DX2 analytically  !
 ! A20   A(4,5,15)             124.5075         calculate D2E/DX2 analytically  !
 ! A21   A(7,5,15)             123.1158         calculate D2E/DX2 analytically  !
 ! A22   A(1,6,10)             107.2663         calculate D2E/DX2 analytically  !
 ! A23   A(1,6,16)             125.2419         calculate D2E/DX2 analytically  !
 ! A24   A(10,6,16)            123.6081         calculate D2E/DX2 analytically  !
 ! A25   A(5,7,8)              110.6001         calculate D2E/DX2 analytically  !
 ! A26   A(5,7,17)             123.7038         calculate D2E/DX2 analytically  !
 ! A27   A(8,7,17)             125.6396         calculate D2E/DX2 analytically  !
 ! A28   A(7,8,9)              109.609          calculate D2E/DX2 analytically  !
 ! A29   A(7,8,18)             126.5429         calculate D2E/DX2 analytically  !
 ! A30   A(9,8,18)             123.845          calculate D2E/DX2 analytically  !
 ! A31   A(4,9,8)              103.5354         calculate D2E/DX2 analytically  !
 ! A32   A(4,9,19)             114.5649         calculate D2E/DX2 analytically  !
 ! A33   A(4,9,20)             109.0632         calculate D2E/DX2 analytically  !
 ! A34   A(8,9,19)             113.1378         calculate D2E/DX2 analytically  !
 ! A35   A(8,9,20)             110.4415         calculate D2E/DX2 analytically  !
 ! A36   A(19,9,20)            106.1071         calculate D2E/DX2 analytically  !
 ! A37   A(3,10,6)             100.1909         calculate D2E/DX2 analytically  !
 ! A38   A(3,10,21)            108.4126         calculate D2E/DX2 analytically  !
 ! A39   A(3,10,22)            115.9511         calculate D2E/DX2 analytically  !
 ! A40   A(6,10,21)            108.9622         calculate D2E/DX2 analytically  !
 ! A41   A(6,10,22)            115.2287         calculate D2E/DX2 analytically  !
 ! A42   A(21,10,22)           107.7153         calculate D2E/DX2 analytically  !
 ! D1    D(6,1,2,3)             -2.6728         calculate D2E/DX2 analytically  !
 ! D2    D(6,1,2,12)          -172.6628         calculate D2E/DX2 analytically  !
 ! D3    D(11,1,2,3)           170.7397         calculate D2E/DX2 analytically  !
 ! D4    D(11,1,2,12)            0.7497         calculate D2E/DX2 analytically  !
 ! D5    D(2,1,6,10)           -16.1685         calculate D2E/DX2 analytically  !
 ! D6    D(2,1,6,16)          -174.4947         calculate D2E/DX2 analytically  !
 ! D7    D(11,1,6,10)          170.4222         calculate D2E/DX2 analytically  !
 ! D8    D(11,1,6,16)           12.0961         calculate D2E/DX2 analytically  !
 ! D9    D(1,2,3,4)            -77.2847         calculate D2E/DX2 analytically  !
 ! D10   D(1,2,3,10)            20.1623         calculate D2E/DX2 analytically  !
 ! D11   D(1,2,3,13)           168.9415         calculate D2E/DX2 analytically  !
 ! D12   D(12,2,3,4)            92.7202         calculate D2E/DX2 analytically  !
 ! D13   D(12,2,3,10)         -169.8327         calculate D2E/DX2 analytically  !
 ! D14   D(12,2,3,13)          -21.0535         calculate D2E/DX2 analytically  !
 ! D15   D(2,3,4,5)             68.113          calculate D2E/DX2 analytically  !
 ! D16   D(2,3,4,9)           -178.7969         calculate D2E/DX2 analytically  !
 ! D17   D(2,3,4,14)           -56.5724         calculate D2E/DX2 analytically  !
 ! D18   D(10,3,4,5)           -39.2714         calculate D2E/DX2 analytically  !
 ! D19   D(10,3,4,9)            73.8186         calculate D2E/DX2 analytically  !
 ! D20   D(10,3,4,14)         -163.9569         calculate D2E/DX2 analytically  !
 ! D21   D(13,3,4,5)          -163.3967         calculate D2E/DX2 analytically  !
 ! D22   D(13,3,4,9)           -50.3067         calculate D2E/DX2 analytically  !
 ! D23   D(13,3,4,14)           71.9178         calculate D2E/DX2 analytically  !
 ! D24   D(2,3,10,6)           -28.0746         calculate D2E/DX2 analytically  !
 ! D25   D(2,3,10,21)           85.9928         calculate D2E/DX2 analytically  !
 ! D26   D(2,3,10,22)         -152.7631         calculate D2E/DX2 analytically  !
 ! D27   D(4,3,10,6)            75.1872         calculate D2E/DX2 analytically  !
 ! D28   D(4,3,10,21)         -170.7454         calculate D2E/DX2 analytically  !
 ! D29   D(4,3,10,22)          -49.5014         calculate D2E/DX2 analytically  !
 ! D30   D(13,3,10,6)         -177.3528         calculate D2E/DX2 analytically  !
 ! D31   D(13,3,10,21)         -63.2855         calculate D2E/DX2 analytically  !
 ! D32   D(13,3,10,22)          57.9586         calculate D2E/DX2 analytically  !
 ! D33   D(3,4,5,7)            107.5728         calculate D2E/DX2 analytically  !
 ! D34   D(3,4,5,15)           -94.126          calculate D2E/DX2 analytically  !
 ! D35   D(9,4,5,7)             -4.8716         calculate D2E/DX2 analytically  !
 ! D36   D(9,4,5,15)           153.4295         calculate D2E/DX2 analytically  !
 ! D37   D(14,4,5,7)          -146.609          calculate D2E/DX2 analytically  !
 ! D38   D(14,4,5,15)           11.6922         calculate D2E/DX2 analytically  !
 ! D39   D(3,4,9,8)           -103.9157         calculate D2E/DX2 analytically  !
 ! D40   D(3,4,9,19)            19.7557         calculate D2E/DX2 analytically  !
 ! D41   D(3,4,9,20)           138.4866         calculate D2E/DX2 analytically  !
 ! D42   D(5,4,9,8)              7.0858         calculate D2E/DX2 analytically  !
 ! D43   D(5,4,9,19)           130.7572         calculate D2E/DX2 analytically  !
 ! D44   D(5,4,9,20)          -110.5119         calculate D2E/DX2 analytically  !
 ! D45   D(14,4,9,8)           150.1105         calculate D2E/DX2 analytically  !
 ! D46   D(14,4,9,19)          -86.2181         calculate D2E/DX2 analytically  !
 ! D47   D(14,4,9,20)           32.5128         calculate D2E/DX2 analytically  !
 ! D48   D(4,5,7,8)              0.4051         calculate D2E/DX2 analytically  !
 ! D49   D(4,5,7,17)          -176.9956         calculate D2E/DX2 analytically  !
 ! D50   D(15,5,7,8)          -158.2635         calculate D2E/DX2 analytically  !
 ! D51   D(15,5,7,17)           24.3358         calculate D2E/DX2 analytically  !
 ! D52   D(1,6,10,3)            26.6951         calculate D2E/DX2 analytically  !
 ! D53   D(1,6,10,21)          -86.9519         calculate D2E/DX2 analytically  !
 ! D54   D(1,6,10,22)          151.8789         calculate D2E/DX2 analytically  !
 ! D55   D(16,6,10,3)         -174.5387         calculate D2E/DX2 analytically  !
 ! D56   D(16,6,10,21)          71.8143         calculate D2E/DX2 analytically  !
 ! D57   D(16,6,10,22)         -49.3548         calculate D2E/DX2 analytically  !
 ! D58   D(5,7,8,9)              4.3657         calculate D2E/DX2 analytically  !
 ! D59   D(5,7,8,18)          -175.0066         calculate D2E/DX2 analytically  !
 ! D60   D(17,7,8,9)          -178.2952         calculate D2E/DX2 analytically  !
 ! D61   D(17,7,8,18)            2.3326         calculate D2E/DX2 analytically  !
 ! D62   D(7,8,9,4)             -7.0173         calculate D2E/DX2 analytically  !
 ! D63   D(7,8,9,19)          -131.6194         calculate D2E/DX2 analytically  !
 ! D64   D(7,8,9,20)           109.6138         calculate D2E/DX2 analytically  !
 ! D65   D(18,8,9,4)           172.3755         calculate D2E/DX2 analytically  !
 ! D66   D(18,8,9,19)           47.7734         calculate D2E/DX2 analytically  !
 ! D67   D(18,8,9,20)          -70.9934         calculate D2E/DX2 analytically  !
 --------------------------------------------------------------------------------
 Trust Radius=1.50D-01 FncErr=1.00D-07 GrdErr=1.00D-06 EigMax=2.50D+02 EigMin=1.00D-04
 Number of steps in this run=    132 maximum allowed number of steps=    132.
 Search for a saddle point of order  1.
 GradGradGradGradGradGradGradGradGradGradGradGradGradGradGradGradGradGrad

                          Input orientation:                          
 ---------------------------------------------------------------------
 Center     Atomic      Atomic             Coordinates (Angstroms)
 Number     Number       Type             X           Y           Z
 ---------------------------------------------------------------------
      1          6           0       -2.222689    0.619619   -0.427118
      2          6           0       -2.121543   -0.777851   -0.389258
      3          6           0       -1.039814   -1.128004    0.447730
      4          6           0        0.609080   -0.746440   -0.807483
      5          6           0        0.615666    0.664580   -0.954391
      6          6           0       -1.260705    1.174554    0.421029
      7          6           0        1.735096    1.204335   -0.190262
      8          6           0        2.423389    0.209951    0.411068
      9          6           0        1.854890   -1.123613   -0.006336
     10          6           0       -0.777839    0.077512    1.325425
     11          1           0       -2.865891    1.181557   -1.095605
     12          1           0       -2.664137   -1.463609   -1.029845
     13          1           0       -0.850062   -2.141616    0.787197
     14          1           0        0.284456   -1.400073   -1.606670
     15          1           0        0.144775    1.197276   -1.767314
     16          1           0       -1.164899    2.228701    0.652803
     17          1           0        1.942172    2.265039   -0.093322
     18          1           0        3.252532    0.323779    1.099545
     19          1           0        1.666709   -1.795856    0.839833
     20          1           0        2.559554   -1.652414   -0.665462
     21          1           0       -1.441077    0.019426    2.203613
     22          1           0        0.245138    0.190546    1.688724
 ---------------------------------------------------------------------
                    Distance matrix (angstroms):
                    1          2          3          4          5
     1  C    0.000000
     2  C    1.401637   0.000000
     3  C    2.284456   1.411841   0.000000
     4  C    3.166972   2.762644   2.107131   0.000000
     5  C    2.887265   3.145202   2.814234   1.418662   0.000000
     6  C    1.397397   2.282431   2.313283   2.948823   2.381727
     7  C    4.007749   4.340775   3.680620   2.335465   1.458887
     8  C    4.738821   4.719394   3.712848   2.385638   2.310634
     9  C    4.454500   4.009763   2.930103   1.528443   2.373209
    10  C    2.335140   2.340368   1.514017   2.674273   2.735702
    11  H    1.084600   2.211845   3.324231   3.984421   3.522562
    12  H    2.213141   1.083985   2.221325   3.358233   3.910497
    13  H    3.314074   2.204669   1.085658   2.572667   3.613340
    14  H    3.428742   2.767324   2.459323   1.082274   2.190425
    15  H    2.781133   3.307017   3.422952   2.216954   1.079976
    16  H    2.207780   3.322712   3.365289   3.759109   2.863557
    17  H    4.490534   5.085326   4.549475   3.369891   2.250006
    18  H    5.691772   5.684259   4.577857   3.430738   3.359741
    19  H    4.750484   4.110700   2.815144   2.221149   3.221440
    20  H    5.299886   4.770096   3.803900   2.155298   3.038197
    21  H    2.809252   2.796724   2.135587   3.722418   3.823533
    22  H    3.278881   3.294993   2.220302   2.690993   2.710730
                    6          7          8          9         10
     6  C    0.000000
     7  C    3.057677   0.000000
     8  C    3.808294   1.350609   0.000000
     9  C    3.895015   2.338273   1.508579   0.000000
    10  C    1.501530   3.143546   3.331884   3.185522   0.000000
    11  H    2.208359   4.689269   5.584851   5.365267   3.382346
    12  H    3.321831   5.213068   5.546166   4.645942   3.388284
    13  H    3.361501   4.339799   4.048064   2.997130   2.284608
    14  H    3.623229   3.300532   3.352384   2.259151   3.450929
    15  H    2.600910   2.239702   3.303368   3.378174   3.416156
    16  H    1.083570   3.189052   4.124269   4.559781   2.286887
    17  H    3.422300   1.085067   2.170107   3.390892   3.767835
    18  H    4.642576   2.177520   1.083714   2.295935   4.044201
    19  H    4.191478   3.172841   2.186245   1.096962   3.117871
    20  H    4.875099   3.011073   2.155426   1.100286   4.253759
    21  H    2.131774   4.150027   4.264225   4.129626   1.102031
    22  H    2.200656   2.603523   2.525383   2.681705   1.091442
                   11         12         13         14         15
    11  H    0.000000
    12  H    2.653664   0.000000
    13  H    4.318795   2.655598   0.000000
    14  H    4.104959   3.005156   2.750930   0.000000
    15  H    3.084728   3.938801   4.320119   2.606058   0.000000
    16  H    2.654584   4.325757   4.383703   4.513740   2.938716
    17  H    5.029510   5.999831   5.290604   4.297824   2.678246
    18  H    6.556643   6.537280   4.796562   4.370897   4.317410
    19  H    5.758070   4.728881   2.540956   2.837718   4.251157
    20  H    6.136112   5.239787   3.738318   2.474999   3.894351
    21  H    3.776967   3.761718   2.650592   4.417092   4.435146
    22  H    4.291048   4.311697   2.729687   3.659404   3.601080
                   16         17         18         19         20
    16  H    0.000000
    17  H    3.195608   0.000000
    18  H    4.831356   2.628396   0.000000
    19  H    4.924433   4.175826   2.659913   0.000000
    20  H    5.538269   4.006862   2.738760   1.756036   0.000000
    21  H    2.713334   4.665304   4.831311   3.848828   5.199201
    22  H    2.686152   3.218561   3.067458   2.585976   3.780901
                   21         22
    21  H    0.000000
    22  H    1.771359   0.000000
 Stoichiometry    C10H12
 Framework group  C1[X(C10H12)]
 Deg. of freedom    60
 Full point group                 C1      NOp   1
 Largest Abelian subgroup         C1      NOp   1
 Largest concise Abelian subgroup C1      NOp   1
                         Standard orientation:                         
 ---------------------------------------------------------------------
 Center     Atomic      Atomic             Coordinates (Angstroms)
 Number     Number       Type             X           Y           Z
 ---------------------------------------------------------------------
      1          6           0       -2.222731    0.619741   -0.426830
      2          6           0       -2.121612   -0.777739   -0.389252
      3          6           0       -1.039850   -1.128080    0.447614
      4          6           0        0.608991   -0.746301   -0.807604
      5          6           0        0.615599    0.664748   -0.954233
      6          6           0       -1.260694    1.174488    0.421380
      7          6           0        1.735078    1.204328   -0.190051
      8          6           0        2.423379    0.209811    0.411048
      9          6           0        1.854832   -1.123659   -0.006592
     10          6           0       -0.777807    0.077257    1.325535
     11          1           0       -2.865954    1.181825   -1.095175
     12          1           0       -2.664252   -1.463358   -1.029948
     13          1           0       -0.850102   -2.141763    0.786871
     14          1           0        0.284315   -1.399769   -1.606904
     15          1           0        0.144680    1.197614   -1.767027
     16          1           0       -1.164855    2.228587    0.653358
     17          1           0        1.942180    2.265009   -0.092912
     18          1           0        3.252558    0.323485    1.099507
     19          1           0        1.666679   -1.796065    0.839453
     20          1           0        2.559453   -1.652344   -0.665857
     21          1           0       -1.441003    0.019011    2.203744
     22          1           0        0.245190    0.190198    1.688806
 ---------------------------------------------------------------------
 Rotational constants (GHZ):           2.7062974           1.1941397           1.0754028
 Standard basis: 6-311G(d,p) (5D, 7F)
 There are   262 symmetry adapted cartesian basis functions of A   symmetry.
 There are   252 symmetry adapted basis functions of A   symmetry.
   252 basis functions,   416 primitive gaussians,   262 cartesian basis functions
    36 alpha electrons       36 beta electrons
       nuclear repulsion energy       514.5567064926 Hartrees.
 NAtoms=   22 NActive=   22 NUniq=   22 SFac= 1.00D+00 NAtFMM=   60 NAOKFM=F Big=F
 Integral buffers will be    131072 words long.
 Raffenetti 2 integral format.
 Two-electron integral symmetry is turned on.
 Nuclear repulsion after empirical dispersion term =      514.5115573820 Hartrees.
 Force inversion solution in PCM.
 ------------------------------------------------------------------------------
 Polarizable Continuum Model (PCM)
 =================================
 Model                : PCM.
 Atomic radii         : UFF (Universal Force Field).
 Polarization charges : Total charges.
 Charge compensation  : None.
 Solution method      : Matrix inversion.
 Cavity type          : Scaled VdW (van der Waals Surface) (Alpha=1.100).
 Cavity algorithm     : GePol (No added spheres)
                        Default sphere list used, NSphG=   22.
                        Lebedev-Laikov grids with approx.  5.0 points / Ang**2.
                        Smoothing algorithm: York/Karplus (Gamma=1.0000).
                        Polarization charges: spherical gaussians, with
                                              point-specific exponents (IZeta= 3).
                        Self-potential: point-specific (ISelfS= 7).
                        Self-field    : sphere-specific E.n sum rule (ISelfD= 2).
 1st derivatives      : Analytical E(r).r(x)/FMM algorithm (CHGder, D1EAlg=3).
                        Cavity 1st derivative terms included.
 2nd derivatives      : Analytical E(r).r(xy)/FMM algorithm (CHGder, D2EAlg=3).
                        Cavity 2nd derivative terms included.
 Solvent              : Cis-Decalin, Eps=   2.213900 Eps(inf)=   2.193361
 ------------------------------------------------------------------------------
 One-electron integrals computed using PRISM.
 NBasis=   252 RedAO= T EigKep=  5.21D-04  NBF=   252
 NBsUse=   252 1.00D-06 EigRej= -1.00D+00 NBFU=   252
 ExpMin= 1.03D-01 ExpMax= 4.56D+03 ExpMxC= 6.82D+02 IAcc=3 IRadAn=         5 AccDes= 0.00D+00
 Harris functional with IExCor=  402 and IRadAn=       5 diagonalized for initial guess.
 HarFok:  IExCor=  402 AccDes= 0.00D+00 IRadAn=         5 IDoV= 1 UseB2=F ITyADJ=14
 ICtDFT=  3500011 ScaDFX=  1.000000  1.000000  1.000000  1.000000
 FoFCou: FMM=F IPFlag=           0 FMFlag=      100000 FMFlg1=           0
         NFxFlg=           0 DoJE=T BraDBF=F KetDBF=T FulRan=T
         wScrn=  0.000000 ICntrl=       500 IOpCl=  0 I1Cent=   200000004 NGrid=           0
         NMat0=    1 NMatS0=      1 NMatT0=    0 NMatD0=    1 NMtDS0=    0 NMtDT0=    0
 Petite list used in FoFCou.
 Requested convergence on RMS density matrix=1.00D-08 within 128 cycles.
 Requested convergence on MAX density matrix=1.00D-06.
 Requested convergence on             energy=1.00D-06.
 No special actions if energy rises.
 Inv3:  Mode=1 IEnd=     7479723.
 Iteration    1 A*A^-1 deviation from unit magnitude is 3.77D-15 for   1553.
 Iteration    1 A*A^-1 deviation from orthogonality  is 3.39D-15 for   1562    682.
 Iteration    1 A^-1*A deviation from unit magnitude is 3.77D-15 for   1572.
 Iteration    1 A^-1*A deviation from orthogonality  is 2.89D-15 for   1561   1394.
 Error on total polarization charges =  0.00638
 SCF Done:  E(RB3LYP) =  -388.313752770     A.U. after   13 cycles
            NFock= 13  Conv=0.55D-08     -V/T= 2.0050
 DoSCS=F DFT=T ScalE2(SS,OS)=  1.000000  1.000000
 Range of M.O.s used for correlation:     1   252
 NBasis=   252 NAE=    36 NBE=    36 NFC=     0 NFV=     0
 NROrb=    252 NOA=    36 NOB=    36 NVA=   216 NVB=   216
 Symmetrizing basis deriv contribution to polar:
 IMax=3 JMax=2 DiffMx= 0.00D+00
 G2DrvN: will do    23 centers at a time, making    1 passes.
 Calling FoFCou, ICntrl=  3107 FMM=F I1Cent=   0 AccDes= 0.00D+00.
 NEqPCM:  Using equilibrium solvation (IEInf=0, Eps=   2.2139, EpsInf=   2.1934)
 G2PCM: DoFxE=T DoFxN=T DoGrad=T DoDP/DQ/DG/TGxP=FFFF NFrqRd=   0 IEInf=0 SqF1=F DoCFld=F IF1Alg=4.
 End of G2Drv F.D. properties file   721 does not exist.
 End of G2Drv F.D. properties file   722 does not exist.
 End of G2Drv F.D. properties file   788 does not exist.
          IDoAtm=1111111111111111111111
 NEqPCM:  Using equilibrium solvation (IEInf=0, Eps=   2.2139, EpsInf=   2.1934)
          Differentiating once with respect to electric field.
                with respect to dipole field.
          Differentiating once with respect to nuclear coordinates.
 Keep R1 ints in memory in canonical form, NReq=629995440.
          There are    69 degrees of freedom in the 1st order CPHF.  IDoFFX=6 NUNeed=     3.
     66 vectors produced by pass  0 Test12= 1.13D-14 1.45D-09 XBig12= 2.63D+02 1.34D+01.
 AX will form    66 AO Fock derivatives at one time.
     66 vectors produced by pass  1 Test12= 1.13D-14 1.45D-09 XBig12= 3.75D+01 8.91D-01.
     66 vectors produced by pass  2 Test12= 1.13D-14 1.45D-09 XBig12= 3.33D-01 6.51D-02.
     66 vectors produced by pass  3 Test12= 1.13D-14 1.45D-09 XBig12= 7.29D-04 4.68D-03.
     66 vectors produced by pass  4 Test12= 1.13D-14 1.45D-09 XBig12= 1.27D-06 1.70D-04.
     49 vectors produced by pass  5 Test12= 1.13D-14 1.45D-09 XBig12= 1.32D-09 3.51D-06.
      7 vectors produced by pass  6 Test12= 1.13D-14 1.45D-09 XBig12= 1.29D-12 1.13D-07.
      3 vectors produced by pass  7 Test12= 1.13D-14 1.45D-09 XBig12= 1.29D-15 3.93D-09.
 InvSVY:  IOpt=1 It=  1 EMax= 2.13D-14
 Solved reduced A of dimension   389 with    69 vectors.
 Isotropic polarizability for W=    0.000000      132.65 Bohr**3.
 End of Minotr F.D. properties file   721 does not exist.
 End of Minotr F.D. properties file   722 does not exist.
 End of Minotr F.D. properties file   788 does not exist.

 **********************************************************************

            Population analysis using the SCF density.

 **********************************************************************

 Orbital symmetries:
       Occupied  (A) (A) (A) (A) (A) (A) (A) (A) (A) (A) (A) (A)
                 (A) (A) (A) (A) (A) (A) (A) (A) (A) (A) (A) (A)
                 (A) (A) (A) (A) (A) (A) (A) (A) (A) (A) (A) (A)
       Virtual   (A) (A) (A) (A) (A) (A) (A) (A) (A) (A) (A) (A)
                 (A) (A) (A) (A) (A) (A) (A) (A) (A) (A) (A) (A)
                 (A) (A) (A) (A) (A) (A) (A) (A) (A) (A) (A) (A)
                 (A) (A) (A) (A) (A) (A) (A) (A) (A) (A) (A) (A)
                 (A) (A) (A) (A) (A) (A) (A) (A) (A) (A) (A) (A)
                 (A) (A) (A) (A) (A) (A) (A) (A) (A) (A) (A) (A)
                 (A) (A) (A) (A) (A) (A) (A) (A) (A) (A) (A) (A)
                 (A) (A) (A) (A) (A) (A) (A) (A) (A) (A) (A) (A)
                 (A) (A) (A) (A) (A) (A) (A) (A) (A) (A) (A) (A)
                 (A) (A) (A) (A) (A) (A) (A) (A) (A) (A) (A) (A)
                 (A) (A) (A) (A) (A) (A) (A) (A) (A) (A) (A) (A)
                 (A) (A) (A) (A) (A) (A) (A) (A) (A) (A) (A) (A)
                 (A) (A) (A) (A) (A) (A) (A) (A) (A) (A) (A) (A)
                 (A) (A) (A) (A) (A) (A) (A) (A) (A) (A) (A) (A)
                 (A) (A) (A) (A) (A) (A) (A) (A) (A) (A) (A) (A)
                 (A) (A) (A) (A) (A) (A) (A) (A) (A) (A) (A) (A)
                 (A) (A) (A) (A) (A) (A) (A) (A) (A) (A) (A) (A)
                 (A) (A) (A) (A) (A) (A) (A) (A) (A) (A) (A) (A)
 The electronic state is 1-A.
 Alpha  occ. eigenvalues --  -10.17996 -10.17424 -10.17300 -10.17204 -10.16758
 Alpha  occ. eigenvalues --  -10.16569 -10.16502 -10.16256 -10.16125 -10.15821
 Alpha  occ. eigenvalues --   -0.86649  -0.83967  -0.71093  -0.70282  -0.69696
 Alpha  occ. eigenvalues --   -0.68684  -0.55450  -0.54873  -0.52905  -0.52185
 Alpha  occ. eigenvalues --   -0.51090  -0.50398  -0.46142  -0.40943  -0.39186
 Alpha  occ. eigenvalues --   -0.38188  -0.37581  -0.37075  -0.36526  -0.36162
 Alpha  occ. eigenvalues --   -0.35266  -0.34582  -0.31030  -0.28378  -0.23731
 Alpha  occ. eigenvalues --   -0.19207
 Alpha virt. eigenvalues --   -0.02979   0.00402   0.04281   0.04672   0.07372
 Alpha virt. eigenvalues --    0.07728   0.08069   0.09699   0.09822   0.10255
 Alpha virt. eigenvalues --    0.11073   0.11424   0.12995   0.13511   0.14743
 Alpha virt. eigenvalues --    0.17119   0.19208   0.20459   0.21072   0.22704
 Alpha virt. eigenvalues --    0.26863   0.28464   0.29085   0.30262   0.32523
 Alpha virt. eigenvalues --    0.32710   0.36109   0.36744   0.37814   0.38942
 Alpha virt. eigenvalues --    0.39153   0.41022   0.41909   0.42120   0.43091
 Alpha virt. eigenvalues --    0.43675   0.44259   0.44606   0.47561   0.48928
 Alpha virt. eigenvalues --    0.49235   0.51892   0.53444   0.54879   0.55691
 Alpha virt. eigenvalues --    0.56376   0.57025   0.58418   0.58679   0.60430
 Alpha virt. eigenvalues --    0.60897   0.61950   0.63117   0.63620   0.64264
 Alpha virt. eigenvalues --    0.65310   0.66732   0.67470   0.68236   0.68529
 Alpha virt. eigenvalues --    0.70490   0.71036   0.73322   0.74598   0.75712
 Alpha virt. eigenvalues --    0.78782   0.79075   0.80831   0.84070   0.85922
 Alpha virt. eigenvalues --    0.87417   0.91077   0.96064   0.98078   0.98645
 Alpha virt. eigenvalues --    1.03864   1.04527   1.07090   1.08207   1.11292
 Alpha virt. eigenvalues --    1.13122   1.16512   1.17798   1.22932   1.25388
 Alpha virt. eigenvalues --    1.26363   1.33281   1.36205   1.38281   1.42329
 Alpha virt. eigenvalues --    1.46076   1.47422   1.47900   1.49346   1.49802
 Alpha virt. eigenvalues --    1.51318   1.52467   1.53641   1.54136   1.54926
 Alpha virt. eigenvalues --    1.57575   1.58880   1.60231   1.60929   1.62326
 Alpha virt. eigenvalues --    1.63008   1.65073   1.65930   1.68257   1.68424
 Alpha virt. eigenvalues --    1.69715   1.70689   1.72684   1.76255   1.77628
 Alpha virt. eigenvalues --    1.79380   1.80394   1.80960   1.81866   1.82199
 Alpha virt. eigenvalues --    1.84901   1.85664   1.87538   1.88670   1.89052
 Alpha virt. eigenvalues --    1.91255   1.93729   1.94694   1.96711   1.98582
 Alpha virt. eigenvalues --    1.99654   2.00346   2.02684   2.06609   2.09065
 Alpha virt. eigenvalues --    2.11525   2.12725   2.15620   2.16867   2.17610
 Alpha virt. eigenvalues --    2.21250   2.24517   2.25497   2.28839   2.31788
 Alpha virt. eigenvalues --    2.34233   2.37210   2.37803   2.38871   2.40713
 Alpha virt. eigenvalues --    2.41857   2.44722   2.45814   2.49570   2.52219
 Alpha virt. eigenvalues --    2.53961   2.57405   2.60782   2.62391   2.62855
 Alpha virt. eigenvalues --    2.64149   2.67467   2.67629   2.69434   2.70460
 Alpha virt. eigenvalues --    2.72374   2.73521   2.74094   2.75955   2.78159
 Alpha virt. eigenvalues --    2.79035   2.82005   2.83690   2.86258   2.87877
 Alpha virt. eigenvalues --    2.92199   2.96146   2.97937   2.99446   3.02176
 Alpha virt. eigenvalues --    3.05058   3.05499   3.14854   3.16669   3.20973
 Alpha virt. eigenvalues --    3.21395   3.30069   3.34983   3.39373   3.41574
 Alpha virt. eigenvalues --    3.45891   3.48093   3.53838   3.58567   3.76549
 Alpha virt. eigenvalues --    3.79336   3.99799   4.02385   4.04621   4.06927
 Alpha virt. eigenvalues --    4.09228   4.13253   4.15802   4.20628   4.45606
 Alpha virt. eigenvalues --    4.54923  23.65474  23.71646  23.87493  23.88490
 Alpha virt. eigenvalues --   23.92967  23.97144  24.07321  24.08931  24.15780
 Alpha virt. eigenvalues --   24.22951
          Condensed to atoms (all electrons):
               1          2          3          4          5          6
     1  C    4.919463   0.504708  -0.080317  -0.023669  -0.015093   0.501128
     2  C    0.504708   4.967276   0.494698  -0.044562  -0.035853  -0.083907
     3  C   -0.080317   0.494698   5.163365   0.134086  -0.046612  -0.107168
     4  C   -0.023669  -0.044562   0.134086   5.179672   0.500390  -0.034981
     5  C   -0.015093  -0.035853  -0.046612   0.500390   5.093343   0.097627
     6  C    0.501128  -0.083907  -0.107168  -0.034981   0.097627   5.166439
     7  C   -0.000149   0.001463  -0.001557  -0.077878   0.414922  -0.021912
     8  C   -0.000148   0.000379   0.003496  -0.089646  -0.085437  -0.005001
     9  C    0.001038   0.001267  -0.029103   0.378811  -0.100022   0.003050
    10  C   -0.096032  -0.092183   0.360810  -0.035078  -0.023257   0.363639
    11  H    0.422341  -0.044324   0.006922  -0.000116   0.000093  -0.044350
    12  H   -0.043325   0.422436  -0.043138  -0.000719  -0.000293   0.006940
    13  H    0.008096  -0.033291   0.406309  -0.014060   0.002497   0.007784
    14  H    0.001334  -0.004184  -0.017864   0.412646  -0.030237   0.001536
    15  H   -0.002722   0.002829   0.002077  -0.035511   0.416340  -0.010135
    16  H   -0.038731   0.008519   0.006386   0.000788  -0.007042   0.414600
    17  H    0.000144  -0.000040  -0.000217   0.006027  -0.044231   0.000318
    18  H    0.000007   0.000016   0.000017   0.004798   0.007418  -0.000032
    19  H    0.000111   0.000287  -0.006105  -0.040073   0.006248   0.000818
    20  H   -0.000102   0.000088   0.003141  -0.028865   0.001001  -0.000495
    21  H    0.000364  -0.000309  -0.031767   0.008077   0.006743  -0.034576
    22  H    0.006361   0.007311  -0.031139  -0.014899  -0.016052  -0.037980
               7          8          9         10         11         12
     1  C   -0.000149  -0.000148   0.001038  -0.096032   0.422341  -0.043325
     2  C    0.001463   0.000379   0.001267  -0.092183  -0.044324   0.422436
     3  C   -0.001557   0.003496  -0.029103   0.360810   0.006922  -0.043138
     4  C   -0.077878  -0.089646   0.378811  -0.035078  -0.000116  -0.000719
     5  C    0.414922  -0.085437  -0.100022  -0.023257   0.000093  -0.000293
     6  C   -0.021912  -0.005001   0.003050   0.363639  -0.044350   0.006940
     7  C    4.880397   0.598739  -0.095560  -0.011621  -0.000114   0.000013
     8  C    0.598739   5.062660   0.367078  -0.007946  -0.000002   0.000013
     9  C   -0.095560   0.367078   4.889869  -0.006332   0.000020  -0.000116
    10  C   -0.011621  -0.007946  -0.006332   4.942506   0.007598   0.007329
    11  H   -0.000114  -0.000002   0.000020   0.007598   0.570699  -0.003812
    12  H    0.000013   0.000013  -0.000116   0.007329  -0.003812   0.568909
    13  H   -0.000139  -0.000478  -0.000827  -0.034618  -0.000265  -0.004613
    14  H    0.006493   0.004475  -0.032437   0.002377   0.000011   0.001222
    15  H   -0.036593   0.005271   0.007588   0.000605   0.000755   0.000057
    16  H    0.001377   0.000468  -0.000065  -0.035461  -0.004705  -0.000276
    17  H    0.419635  -0.043333   0.009019   0.000069   0.000002  -0.000002
    18  H   -0.035163   0.413513  -0.037454   0.000113  -0.000000  -0.000000
    19  H    0.003642  -0.036195   0.400026   0.000328   0.000001  -0.000009
    20  H   -0.001067  -0.029716   0.391256   0.000386  -0.000003   0.000011
    21  H   -0.000110  -0.001174  -0.000266   0.390778  -0.000226  -0.000294
    22  H    0.006128   0.011616  -0.001811   0.414806  -0.000302  -0.000237
              13         14         15         16         17         18
     1  C    0.008096   0.001334  -0.002722  -0.038731   0.000144   0.000007
     2  C   -0.033291  -0.004184   0.002829   0.008519  -0.000040   0.000016
     3  C    0.406309  -0.017864   0.002077   0.006386  -0.000217   0.000017
     4  C   -0.014060   0.412646  -0.035511   0.000788   0.006027   0.004798
     5  C    0.002497  -0.030237   0.416340  -0.007042  -0.044231   0.007418
     6  C    0.007784   0.001536  -0.010135   0.414600   0.000318  -0.000032
     7  C   -0.000139   0.006493  -0.036593   0.001377   0.419635  -0.035163
     8  C   -0.000478   0.004475   0.005271   0.000468  -0.043333   0.413513
     9  C   -0.000827  -0.032437   0.007588  -0.000065   0.009019  -0.037454
    10  C   -0.034618   0.002377   0.000605  -0.035461   0.000069   0.000113
    11  H   -0.000265   0.000011   0.000755  -0.004705   0.000002  -0.000000
    12  H   -0.004613   0.001222   0.000057  -0.000276  -0.000002  -0.000000
    13  H    0.552666  -0.000011  -0.000170  -0.000395   0.000019   0.000003
    14  H   -0.000011   0.537746  -0.003752  -0.000054  -0.000262  -0.000232
    15  H   -0.000170  -0.003752   0.541879   0.000331  -0.001953  -0.000303
    16  H   -0.000395  -0.000054   0.000331   0.555624   0.000438   0.000003
    17  H    0.000019  -0.000262  -0.001953   0.000438   0.568576  -0.004959
    18  H    0.000003  -0.000232  -0.000303   0.000003  -0.004959   0.555197
    19  H    0.003035   0.001461  -0.000328  -0.000011  -0.000312  -0.000592
    20  H   -0.000401  -0.004363  -0.000241   0.000014  -0.000430  -0.000066
    21  H   -0.001007  -0.000183  -0.000139  -0.000698  -0.000031  -0.000017
    22  H   -0.001819   0.000428   0.000515  -0.001325   0.000587   0.000284
              19         20         21         22
     1  C    0.000111  -0.000102   0.000364   0.006361
     2  C    0.000287   0.000088  -0.000309   0.007311
     3  C   -0.006105   0.003141  -0.031767  -0.031139
     4  C   -0.040073  -0.028865   0.008077  -0.014899
     5  C    0.006248   0.001001   0.006743  -0.016052
     6  C    0.000818  -0.000495  -0.034576  -0.037980
     7  C    0.003642  -0.001067  -0.000110   0.006128
     8  C   -0.036195  -0.029716  -0.001174   0.011616
     9  C    0.400026   0.391256  -0.000266  -0.001811
    10  C    0.000328   0.000386   0.390778   0.414806
    11  H    0.000001  -0.000003  -0.000226  -0.000302
    12  H   -0.000009   0.000011  -0.000294  -0.000237
    13  H    0.003035  -0.000401  -0.001007  -0.001819
    14  H    0.001461  -0.004363  -0.000183   0.000428
    15  H   -0.000328  -0.000241  -0.000139   0.000515
    16  H   -0.000011   0.000014  -0.000698  -0.001325
    17  H   -0.000312  -0.000430  -0.000031   0.000587
    18  H   -0.000592  -0.000066  -0.000017   0.000284
    19  H    0.576565  -0.031963  -0.000502  -0.000524
    20  H   -0.031963   0.565111   0.000015   0.000700
    21  H   -0.000502   0.000015   0.561520  -0.033051
    22  H   -0.000524   0.000700  -0.033051   0.556519
 Mulliken charges:
               1
     1  C   -0.064805
     2  C   -0.072625
     3  C   -0.186320
     4  C   -0.185236
     5  C   -0.142491
     6  C   -0.183341
     7  C   -0.050946
     8  C   -0.168631
     9  C   -0.145028
    10  C   -0.148814
    11  H    0.089777
    12  H    0.089905
    13  H    0.111684
    14  H    0.123850
    15  H    0.113600
    16  H    0.100215
    17  H    0.090936
    18  H    0.097451
    19  H    0.124092
    20  H    0.135987
    21  H    0.136854
    22  H    0.133886
 Sum of Mulliken charges =  -0.00000
 Mulliken charges with hydrogens summed into heavy atoms:
               1
     1  C    0.024972
     2  C    0.017280
     3  C   -0.074636
     4  C   -0.061386
     5  C   -0.028891
     6  C   -0.083126
     7  C    0.039990
     8  C   -0.071180
     9  C    0.115051
    10  C    0.121926
 APT charges:
               1
     1  C   -0.047018
     2  C   -0.191106
     3  C    0.127420
     4  C    0.009318
     5  C   -0.027446
     6  C    0.042166
     7  C    0.040115
     8  C   -0.135592
     9  C    0.034095
    10  C   -0.064072
    11  H    0.041385
    12  H    0.055478
    13  H    0.005193
    14  H   -0.017050
    15  H    0.004597
    16  H    0.009080
    17  H    0.030215
    18  H    0.042564
    19  H    0.007737
    20  H   -0.014920
    21  H    0.001811
    22  H    0.046029
 Sum of APT charges =   0.00000
 APT charges with hydrogens summed into heavy atoms:
               1
     1  C   -0.005633
     2  C   -0.135628
     3  C    0.132612
     4  C   -0.007731
     5  C   -0.022849
     6  C    0.051246
     7  C    0.070330
     8  C   -0.093028
     9  C    0.026912
    10  C   -0.016232
 Electronic spatial extent (au):  <R**2>=           1257.7092
 Charge=             -0.0000 electrons
 Dipole moment (field-independent basis, Debye):
    X=              0.3261    Y=             -0.3347    Z=              0.0947  Tot=              0.4768
 Quadrupole moment (field-independent basis, Debye-Ang):
   XX=            -62.8548   YY=            -57.0045   ZZ=            -60.2859
   XY=             -1.0420   XZ=              3.2635   YZ=              0.0873
 Traceless Quadrupole moment (field-independent basis, Debye-Ang):
   XX=             -2.8064   YY=              3.0439   ZZ=             -0.2375
   XY=             -1.0420   XZ=              3.2635   YZ=              0.0873
 Octapole moment (field-independent basis, Debye-Ang**2):
  XXX=              6.7235  YYY=              2.2856  ZZZ=              0.8231  XYY=              0.9889
  XXY=             -1.3725  XXZ=             -1.3320  XZZ=             -3.0020  YZZ=             -1.4927
  YYZ=             -1.5440  XYZ=              1.0182
 Hexadecapole moment (field-independent basis, Debye-Ang**3):
 XXXX=          -1090.0937 YYYY=           -394.8140 ZZZZ=           -284.6612 XXXY=             -9.4415
 XXXZ=             42.9968 YYYX=              3.6385 YYYZ=              0.7017 ZZZX=              3.9615
 ZZZY=             -0.6359 XXYY=           -239.2230 XXZZ=           -219.9988 YYZZ=           -113.4053
 XXYZ=              5.2255 YYXZ=              4.6488 ZZXY=             -3.1016
 N-N= 5.145115573820D+02 E-N=-1.929513645697D+03  KE= 3.863955028763D+02
  Exact polarizability: 172.695  -2.247 124.528   6.487  -1.237 100.714
 Approx polarizability: 258.039  -4.160 194.092   7.349  -4.856 147.281
 D2PCM: PCM CHGder 2nd derivatives, FixD1E=F FixD2E=F DoIter=F DoCFld=F I1PDM=0
 Calling FoFJK, ICntrl=    100127 FMM=F ISym2X=0 I1Cent= 0 IOpClX= 0 NMat=1 NMatS=1 NMatT=0.
 ***** Axes restored to original set *****
 -------------------------------------------------------------------
 Center     Atomic                   Forces (Hartrees/Bohr)
 Number     Number              X              Y              Z
 -------------------------------------------------------------------
      1        6           0.000826386    0.000422988    0.000305779
      2        6           0.000918915   -0.000051318   -0.000105090
      3        6          -0.002538080   -0.001093576    0.001493361
      4        6           0.001469565    0.000899601   -0.002020795
      5        6           0.000949243   -0.001401138   -0.001116853
      6        6          -0.002697812    0.000544158    0.000978791
      7        6           0.000905104   -0.000918338    0.001118355
      8        6          -0.000606231    0.001555230   -0.001004902
      9        6           0.000011038   -0.000782720    0.000477017
     10        6           0.001061166    0.000091822   -0.000682215
     11        1           0.000854000   -0.000613829    0.000749109
     12        1           0.000720468    0.000764712    0.000702769
     13        1          -0.000019780    0.001273643   -0.000706476
     14        1           0.000154479    0.000840630    0.001324270
     15        1           0.000458978   -0.000559171    0.001192322
     16        1           0.000063083   -0.001124878   -0.000498012
     17        1          -0.000196991   -0.001289345   -0.000077913
     18        1          -0.000973205   -0.000032270   -0.000765699
     19        1           0.000123761    0.000829746   -0.000914563
     20        1          -0.000809286    0.000734492    0.000590183
     21        1           0.000531077    0.000039214   -0.000803001
     22        1          -0.001205877   -0.000129654   -0.000236438
 -------------------------------------------------------------------
 Cartesian Forces:  Max     0.002697812 RMS     0.000958538
 FormGI is forming the generalized inverse of G from B-inverse, IUseBI=4.

 GradGradGradGradGradGradGradGradGradGradGradGradGradGradGradGradGradGrad
 Berny optimization.
 Internal  Forces:  Max     0.002826485 RMS     0.000643633
 Search for a saddle point.
 Step number   1 out of a maximum of  132
 All quantities printed in internal units (Hartrees-Bohrs-Radians)
 Swapping is turned off.
 Second derivative matrix not updated -- analytic derivatives used.
 ITU=  0
     Eigenvalues ---   -0.04652   0.00552   0.00607   0.01058   0.01122
     Eigenvalues ---    0.01178   0.01295   0.01414   0.01758   0.01826
     Eigenvalues ---    0.02300   0.02936   0.03639   0.03866   0.04165
     Eigenvalues ---    0.04206   0.04328   0.04526   0.05062   0.05733
     Eigenvalues ---    0.05857   0.06239   0.06447   0.06968   0.08033
     Eigenvalues ---    0.08964   0.09237   0.09977   0.10091   0.10469
     Eigenvalues ---    0.10618   0.10711   0.13927   0.17948   0.17980
     Eigenvalues ---    0.20587   0.22126   0.23940   0.24472   0.26173
     Eigenvalues ---    0.27919   0.28042   0.31557   0.31780   0.32590
     Eigenvalues ---    0.32942   0.33989   0.34999   0.35462   0.35543
     Eigenvalues ---    0.35574   0.35625   0.35835   0.35889   0.36473
     Eigenvalues ---    0.37153   0.39132   0.42429   0.46540   0.50987
 Eigenvectors required to have negative eigenvalues:
                          R6        D52       D27       D24       R9
   1                   -0.69440   0.18437  -0.17760  -0.16930   0.16675
                          D36       D37       D5        D51       D50
   1                   -0.16565   0.15965  -0.13942   0.13860   0.13772
 RFO step:  Lambda0=2.069770338D-04 Lambda=-1.67843078D-04.
 Linear search not attempted -- option 19 set.
 Iteration  1 RMS(Cart)=  0.00787619 RMS(Int)=  0.00003024
 Iteration  2 RMS(Cart)=  0.00003360 RMS(Int)=  0.00001560
 Iteration  3 RMS(Cart)=  0.00000000 RMS(Int)=  0.00001560
 Variable       Old X    -DE/DX   Delta X   Delta X   Delta X     New X
                                 (Linear)    (Quad)   (Total)
    R1        2.64871  -0.00060   0.00000  -0.00771  -0.00771   2.64100
    R2        2.64070  -0.00192   0.00000   0.00096   0.00096   2.64165
    R3        2.04960  -0.00129   0.00000  -0.00348  -0.00348   2.04611
    R4        2.66799  -0.00160   0.00000   0.00485   0.00485   2.67285
    R5        2.04844  -0.00126   0.00000  -0.00349  -0.00349   2.04494
    R6        3.98190   0.00186   0.00000  -0.06101  -0.06101   3.92089
    R7        2.86108  -0.00051   0.00000  -0.00027  -0.00026   2.86082
    R8        2.05160  -0.00141   0.00000  -0.00372  -0.00372   2.04788
    R9        2.68088  -0.00205   0.00000   0.00504   0.00505   2.68593
   R10        2.88834  -0.00090   0.00000   0.00075   0.00076   2.88910
   R11        2.04520  -0.00153   0.00000  -0.00368  -0.00368   2.04152
   R12        2.75690  -0.00072   0.00000  -0.00299  -0.00299   2.75391
   R13        2.04086  -0.00137   0.00000  -0.00358  -0.00358   2.03727
   R14        2.83748  -0.00059   0.00000  -0.00228  -0.00229   2.83519
   R15        2.04765  -0.00120   0.00000  -0.00344  -0.00344   2.04421
   R16        2.55228  -0.00283   0.00000  -0.00494  -0.00495   2.54733
   R17        2.05048  -0.00130   0.00000  -0.00354  -0.00354   2.04694
   R18        2.85080  -0.00069   0.00000  -0.00128  -0.00129   2.84951
   R19        2.04792  -0.00123   0.00000  -0.00322  -0.00322   2.04471
   R20        2.07296  -0.00124   0.00000  -0.00392  -0.00392   2.06903
   R21        2.07924  -0.00122   0.00000  -0.00393  -0.00393   2.07530
   R22        2.08254  -0.00096   0.00000  -0.00273  -0.00273   2.07980
   R23        2.06253  -0.00122   0.00000  -0.00346  -0.00346   2.05906
    A1        1.90696   0.00027   0.00000   0.00080   0.00080   1.90776
    A2        2.18463  -0.00006   0.00000   0.00054   0.00054   2.18517
    A3        2.18534  -0.00018   0.00000  -0.00165  -0.00165   2.18369
    A4        1.89502   0.00035   0.00000  -0.00014  -0.00014   1.89489
    A5        2.18788  -0.00000   0.00000   0.00090   0.00089   2.18877
    A6        2.18579  -0.00030   0.00000  -0.00176  -0.00177   2.18402
    A7        1.77369  -0.00014   0.00000   0.00254   0.00255   1.77623
    A8        1.85331  -0.00047   0.00000  -0.00306  -0.00309   1.85022
    A9        2.15416   0.00035   0.00000  -0.00343  -0.00345   2.15071
   A10        1.63659   0.00116   0.00000   0.00998   0.00998   1.64657
   A11        1.79113  -0.00087   0.00000   0.00224   0.00224   1.79338
   A12        2.13162   0.00011   0.00000  -0.00144  -0.00150   2.13013
   A13        1.81876   0.00080   0.00000   0.00419   0.00420   1.82296
   A14        1.85553  -0.00026   0.00000   0.00517   0.00517   1.86070
   A15        1.66675  -0.00041   0.00000   0.01011   0.01015   1.67689
   A16        1.87123  -0.00031   0.00000  -0.00235  -0.00238   1.86885
   A17        2.12423   0.00000   0.00000  -0.00536  -0.00546   2.11878
   A18        2.07431   0.00025   0.00000  -0.00568  -0.00577   2.06854
   A19        1.89369   0.00025   0.00000  -0.00027  -0.00026   1.89343
   A20        2.17307  -0.00001   0.00000  -0.00079  -0.00082   2.17225
   A21        2.14878  -0.00015   0.00000  -0.00180  -0.00182   2.14696
   A22        1.87215  -0.00023   0.00000  -0.00087  -0.00088   1.87127
   A23        2.18588   0.00008   0.00000   0.00021   0.00021   2.18609
   A24        2.15737   0.00029   0.00000   0.00188   0.00189   2.15925
   A25        1.93034   0.00010   0.00000   0.00113   0.00113   1.93146
   A26        2.15904   0.00002   0.00000  -0.00026  -0.00026   2.15878
   A27        2.19282  -0.00012   0.00000  -0.00083  -0.00083   2.19199
   A28        1.91304   0.00007   0.00000   0.00158   0.00158   1.91462
   A29        2.20859  -0.00013   0.00000  -0.00146  -0.00146   2.20713
   A30        2.16150   0.00007   0.00000  -0.00015  -0.00014   2.16136
   A31        1.80703  -0.00012   0.00000  -0.00019  -0.00017   1.80686
   A32        1.99953  -0.00003   0.00000  -0.00106  -0.00107   1.99847
   A33        1.90351  -0.00001   0.00000  -0.00077  -0.00078   1.90273
   A34        1.97463   0.00018   0.00000   0.00018   0.00017   1.97479
   A35        1.92757  -0.00013   0.00000  -0.00079  -0.00079   1.92678
   A36        1.85192   0.00009   0.00000   0.00246   0.00247   1.85438
   A37        1.74866   0.00036   0.00000  -0.00110  -0.00110   1.74756
   A38        1.89216  -0.00028   0.00000  -0.00029  -0.00028   1.89187
   A39        2.02373   0.00008   0.00000   0.00021   0.00021   2.02394
   A40        1.90175  -0.00040   0.00000   0.00067   0.00067   1.90242
   A41        2.01112   0.00015   0.00000   0.00087   0.00087   2.01199
   A42        1.87999   0.00003   0.00000  -0.00038  -0.00038   1.87961
    D1       -0.04665  -0.00026   0.00000  -0.00287  -0.00287  -0.04952
    D2       -3.01353  -0.00049   0.00000   0.00335   0.00336  -3.01018
    D3        2.97997   0.00003   0.00000  -0.00583  -0.00583   2.97414
    D4        0.01309  -0.00019   0.00000   0.00039   0.00039   0.01348
    D5       -0.28219   0.00052   0.00000  -0.00233  -0.00233  -0.28453
    D6       -3.04551   0.00008   0.00000  -0.00597  -0.00596  -3.05147
    D7        2.97443   0.00021   0.00000   0.00045   0.00045   2.97488
    D8        0.21112  -0.00022   0.00000  -0.00318  -0.00317   0.20794
    D9       -1.34887  -0.00125   0.00000  -0.00430  -0.00430  -1.35317
   D10        0.35190  -0.00017   0.00000   0.00643   0.00642   0.35832
   D11        2.94859  -0.00018   0.00000  -0.00751  -0.00750   2.94108
   D12        1.61827  -0.00099   0.00000  -0.01018  -0.01017   1.60810
   D13       -2.96414   0.00010   0.00000   0.00056   0.00055  -2.96359
   D14       -0.36745   0.00008   0.00000  -0.01339  -0.01337  -0.38083
   D15        1.18880  -0.00003   0.00000  -0.00181  -0.00180   1.18699
   D16       -3.12059  -0.00013   0.00000  -0.00057  -0.00057  -3.12116
   D17       -0.98737  -0.00011   0.00000  -0.00107  -0.00106  -0.98844
   D18       -0.68542   0.00020   0.00000  -0.00135  -0.00136  -0.68677
   D19        1.28838   0.00009   0.00000  -0.00012  -0.00012   1.28826
   D20       -2.86159   0.00011   0.00000  -0.00062  -0.00062  -2.86220
   D21       -2.85181  -0.00008   0.00000  -0.00351  -0.00352  -2.85533
   D22       -0.87802  -0.00019   0.00000  -0.00227  -0.00228  -0.88030
   D23        1.25520  -0.00016   0.00000  -0.00277  -0.00277   1.25243
   D24       -0.48999   0.00044   0.00000  -0.00708  -0.00707  -0.49706
   D25        1.50086   0.00006   0.00000  -0.00692  -0.00692   1.49394
   D26       -2.66622  -0.00006   0.00000  -0.00749  -0.00748  -2.67370
   D27        1.31226   0.00060   0.00000  -0.00170  -0.00170   1.31056
   D28       -2.98007   0.00022   0.00000  -0.00155  -0.00155  -2.98162
   D29       -0.86396   0.00010   0.00000  -0.00211  -0.00212  -0.86608
   D30       -3.09539   0.00036   0.00000   0.00740   0.00740  -3.08799
   D31       -1.10454  -0.00002   0.00000   0.00756   0.00755  -1.09698
   D32        1.01157  -0.00014   0.00000   0.00699   0.00699   1.01856
   D33        1.87750  -0.00018   0.00000   0.00561   0.00562   1.88312
   D34       -1.64281   0.00002   0.00000  -0.00242  -0.00241  -1.64522
   D35       -0.08503  -0.00012   0.00000  -0.00108  -0.00107  -0.08610
   D36        2.67785   0.00008   0.00000  -0.00911  -0.00910   2.66875
   D37       -2.55881  -0.00013   0.00000   0.01894   0.01892  -2.53989
   D38        0.20407   0.00008   0.00000   0.01091   0.01089   0.21496
   D39       -1.81367  -0.00061   0.00000  -0.00528  -0.00528  -1.81895
   D40        0.34480  -0.00049   0.00000  -0.00583  -0.00583   0.33897
   D41        2.41705  -0.00040   0.00000  -0.00392  -0.00393   2.41312
   D42        0.12367   0.00005   0.00000   0.00075   0.00075   0.12442
   D43        2.28214   0.00017   0.00000   0.00021   0.00020   2.28234
   D44       -1.92880   0.00026   0.00000   0.00211   0.00210  -1.92670
   D45        2.61992  -0.00005   0.00000  -0.01850  -0.01848   2.60144
   D46       -1.50479   0.00007   0.00000  -0.01905  -0.01903  -1.52382
   D47        0.56746   0.00016   0.00000  -0.01715  -0.01713   0.55032
   D48        0.00707   0.00013   0.00000   0.00098   0.00097   0.00804
   D49       -3.08916   0.00009   0.00000   0.00029   0.00029  -3.08886
   D50       -2.76222  -0.00011   0.00000   0.00861   0.00860  -2.75361
   D51        0.42474  -0.00014   0.00000   0.00793   0.00792   0.43266
   D52        0.46592  -0.00052   0.00000   0.00604   0.00604   0.47196
   D53       -1.51760  -0.00023   0.00000   0.00662   0.00662  -1.51097
   D54        2.65079  -0.00008   0.00000   0.00601   0.00601   2.65680
   D55       -3.04628  -0.00015   0.00000   0.00916   0.00916  -3.03711
   D56        1.25340   0.00014   0.00000   0.00974   0.00975   1.26314
   D57       -0.86140   0.00029   0.00000   0.00913   0.00913  -0.85227
   D58        0.07620  -0.00007   0.00000  -0.00026  -0.00026   0.07593
   D59       -3.05444  -0.00007   0.00000   0.00236   0.00236  -3.05208
   D60       -3.11184  -0.00003   0.00000   0.00046   0.00045  -3.11138
   D61        0.04071  -0.00002   0.00000   0.00308   0.00307   0.04379
   D62       -0.12248  -0.00000   0.00000  -0.00049  -0.00049  -0.12296
   D63       -2.29719   0.00000   0.00000   0.00085   0.00085  -2.29634
   D64        1.91312  -0.00014   0.00000  -0.00185  -0.00185   1.91127
   D65        3.00852  -0.00001   0.00000  -0.00304  -0.00304   3.00548
   D66        0.83380  -0.00000   0.00000  -0.00169  -0.00170   0.83211
   D67       -1.23907  -0.00014   0.00000  -0.00440  -0.00440  -1.24347
         Item               Value     Threshold  Converged?
 Maximum Force            0.002826     0.000450     NO 
 RMS     Force            0.000644     0.000300     NO 
 Maximum Displacement     0.028513     0.001800     NO 
 RMS     Displacement     0.007878     0.001200     NO 
 Predicted change in Energy= 1.976583D-05
 GradGradGradGradGradGradGradGradGradGradGradGradGradGradGradGradGradGrad

                          Input orientation:                          
 ---------------------------------------------------------------------
 Center     Atomic      Atomic             Coordinates (Angstroms)
 Number     Number       Type             X           Y           Z
 ---------------------------------------------------------------------
      1          6           0       -2.217711    0.619142   -0.426650
      2          6           0       -2.112649   -0.774088   -0.394407
      3          6           0       -1.026206   -1.124650    0.440639
      4          6           0        0.596728   -0.749079   -0.796303
      5          6           0        0.607035    0.664041   -0.948550
      6          6           0       -1.258159    1.174816    0.424596
      7          6           0        1.731316    1.201954   -0.193313
      8          6           0        2.419887    0.210104    0.405997
      9          6           0        1.847863   -1.124173   -0.001732
     10          6           0       -0.775694    0.077175    1.326467
     11          1           0       -2.858830    1.181446   -1.093840
     12          1           0       -2.649049   -1.458367   -1.038656
     13          1           0       -0.839880   -2.137178    0.778945
     14          1           0        0.281456   -1.399380   -1.599308
     15          1           0        0.139912    1.193222   -1.763423
     16          1           0       -1.163118    2.227289    0.655789
     17          1           0        1.941803    2.260501   -0.101245
     18          1           0        3.250663    0.325974    1.089471
     19          1           0        1.663874   -1.791029    0.846929
     20          1           0        2.546337   -1.654056   -0.663102
     21          1           0       -1.443309    0.010795    2.198917
     22          1           0        0.242534    0.192939    1.696681
 ---------------------------------------------------------------------
                    Distance matrix (angstroms):
                    1          2          3          4          5
     1  C    0.000000
     2  C    1.397558   0.000000
     3  C    2.283130   1.414409   0.000000
     4  C    3.151148   2.739137   2.074848   0.000000
     5  C    2.872905   3.126015   2.792263   1.421335   0.000000
     6  C    1.397903   2.280164   2.311190   2.938123   2.371786
     7  C    3.998615   4.326806   3.663182   2.336111   1.457306
     8  C    4.729474   4.706715   3.695717   2.385260   2.308092
     9  C    4.443938   3.995298   2.907914   1.528848   2.373568
    10  C    2.333786   2.339552   1.513879   2.659396   2.726179
    11  H    1.082757   2.206832   3.321327   3.969425   3.507284
    12  H    2.208313   1.082136   2.221103   3.331200   3.887778
    13  H    3.308954   2.203341   1.083690   2.544026   3.595084
    14  H    3.419852   2.752184   2.438615   1.080327   2.187966
    15  H    2.770363   3.289155   3.404445   2.217326   1.078079
    16  H    2.206802   3.318552   3.361625   3.750252   2.855011
    17  H    4.483470   5.072796   4.534530   3.368962   2.246823
    18  H    5.682225   5.672490   4.562554   3.428593   3.355083
    19  H    4.743166   4.103317   2.801011   2.219160   3.219941
    20  H    5.283889   4.748967   3.776450   2.153532   3.035777
    21  H    2.804173   2.790947   2.134186   3.702769   3.812766
    22  H    3.277650   3.294644   2.218870   2.688461   2.711466
                    6          7          8          9         10
     6  C    0.000000
     7  C    3.052787   0.000000
     8  C    3.802504   1.347987   0.000000
     9  C    3.887734   2.336911   1.507896   0.000000
    10  C    1.500319   3.140057   3.328164   3.176539   0.000000
    11  H    2.206318   4.677693   5.572959   5.353647   3.378869
    12  H    3.318031   5.194180   5.528556   4.626998   3.385432
    13  H    3.357056   4.325059   4.034217   2.976508   2.281942
    14  H    3.618437   3.293304   3.344334   2.254244   3.443536
    15  H    2.596607   2.235595   3.297149   3.375051   3.410470
    16  H    1.081750   3.185912   4.119388   4.553091   2.285365
    17  H    3.419792   1.083192   2.165638   3.387439   3.766970
    18  H    4.635953   2.172853   1.082012   2.293796   4.040992
    19  H    4.184839   3.169322   2.184150   1.094886   3.109925
    20  H    4.864133   3.006951   2.152685   1.098204   4.241630
    21  H    2.130126   4.149682   4.263633   4.118594   1.100584
    22  H    2.198718   2.608958   2.531211   2.682625   1.089609
                   11         12         13         14         15
    11  H    0.000000
    12  H    2.648711   0.000000
    13  H    4.312395   2.652838   0.000000
    14  H    4.096042   2.984237   2.730903   0.000000
    15  H    3.072610   3.915930   4.302928   2.601644   0.000000
    16  H    2.651495   4.320092   4.378153   4.508324   2.935944
    17  H    5.019530   5.982026   5.277507   4.289018   2.673711
    18  H    6.544049   6.520689   4.784986   4.361487   4.309047
    19  H    5.749526   4.718834   2.528482   2.836995   4.247605
    20  H    6.118941   5.212616   3.712057   2.463945   3.886975
    21  H    3.770460   3.754214   2.644662   4.403399   4.427736
    22  H    4.287495   4.309308   2.728243   3.660675   3.603251
                   16         17         18         19         20
    16  H    0.000000
    17  H    3.196051   0.000000
    18  H    4.825405   2.621700   0.000000
    19  H    4.916838   4.170273   2.656771   0.000000
    20  H    5.528505   4.000613   2.736440   1.754336   0.000000
    21  H    2.715251   4.670214   4.833588   3.837841   5.184607
    22  H    2.682889   3.224107   3.071684   2.584264   3.779878
                   21         22
    21  H    0.000000
    22  H    1.768469   0.000000
 Stoichiometry    C10H12
 Framework group  C1[X(C10H12)]
 Deg. of freedom    60
 Full point group                 C1      NOp   1
 Largest Abelian subgroup         C1      NOp   1
 Largest concise Abelian subgroup C1      NOp   1
                         Standard orientation:                         
 ---------------------------------------------------------------------
 Center     Atomic      Atomic             Coordinates (Angstroms)
 Number     Number       Type             X           Y           Z
 ---------------------------------------------------------------------
      1          6           0       -2.218960    0.615796   -0.424350
      2          6           0       -2.111972   -0.777268   -0.391274
      3          6           0       -1.023883   -1.125773    0.442490
      4          6           0        0.596802   -0.748885   -0.796997
      5          6           0        0.604986    0.664140   -0.950254
      6          6           0       -1.258965    1.173366    0.425155
      7          6           0        1.729599    1.204103   -0.196978
      8          6           0        2.420352    0.213606    0.402061
      9          6           0        1.849557   -1.121729   -0.003924
     10          6           0       -0.773750    0.077014    1.327118
     11          1           0       -2.861776    1.176764   -1.091033
     12          1           0       -2.648351   -1.462725   -1.034286
     13          1           0       -0.835714   -2.137810    0.781246
     14          1           0        0.281280   -1.400177   -1.599101
     15          1           0        0.136003    1.192114   -1.764841
     16          1           0       -1.165021    2.226129    0.655473
     17          1           0        1.938786    2.262998   -0.105951
     18          1           0        3.251930    0.331081    1.084284
     19          1           0        1.667663   -1.788234    0.845464
     20          1           0        2.547816   -1.651135   -0.665902
     21          1           0       -1.440048    0.010349    2.200553
     22          1           0        0.244840    0.194414    1.695819
 ---------------------------------------------------------------------
 Rotational constants (GHZ):           2.7154018           1.2020127           1.0815076
 Standard basis: 6-311G(d,p) (5D, 7F)
 There are   262 symmetry adapted cartesian basis functions of A   symmetry.
 There are   252 symmetry adapted basis functions of A   symmetry.
   252 basis functions,   416 primitive gaussians,   262 cartesian basis functions
    36 alpha electrons       36 beta electrons
       nuclear repulsion energy       515.6347825897 Hartrees.
 NAtoms=   22 NActive=   22 NUniq=   22 SFac= 1.00D+00 NAtFMM=   60 NAOKFM=F Big=F
 Integral buffers will be    131072 words long.
 Raffenetti 2 integral format.
 Two-electron integral symmetry is turned on.
 Nuclear repulsion after empirical dispersion term =      515.5897583042 Hartrees.
 Force inversion solution in PCM.
 ------------------------------------------------------------------------------
 Polarizable Continuum Model (PCM)
 =================================
 Model                : PCM.
 Atomic radii         : UFF (Universal Force Field).
 Polarization charges : Total charges.
 Charge compensation  : None.
 Solution method      : Matrix inversion.
 Cavity type          : Scaled VdW (van der Waals Surface) (Alpha=1.100).
 Cavity algorithm     : GePol (No added spheres)
                        Default sphere list used, NSphG=   22.
                        Lebedev-Laikov grids with approx.  5.0 points / Ang**2.
                        Smoothing algorithm: York/Karplus (Gamma=1.0000).
                        Polarization charges: spherical gaussians, with
                                              point-specific exponents (IZeta= 3).
                        Self-potential: point-specific (ISelfS= 7).
                        Self-field    : sphere-specific E.n sum rule (ISelfD= 2).
 1st derivatives      : Analytical E(r).r(x)/FMM algorithm (CHGder, D1EAlg=3).
                        Cavity 1st derivative terms included.
 2nd derivatives      : Analytical E(r).r(xy)/FMM algorithm (CHGder, D2EAlg=3).
                        Cavity 2nd derivative terms included.
 Solvent              : Cis-Decalin, Eps=   2.213900 Eps(inf)=   2.193361
 ------------------------------------------------------------------------------
 One-electron integrals computed using PRISM.
 NBasis=   252 RedAO= T EigKep=  5.18D-04  NBF=   252
 NBsUse=   252 1.00D-06 EigRej= -1.00D+00 NBFU=   252
 Initial guess from the checkpoint file:  "01_03.chk"
 B after Tr=     0.000000    0.000000    0.000000
         Rot=    0.999999    0.000471   -0.000768   -0.000618 Ang=   0.13 deg.
 ExpMin= 1.03D-01 ExpMax= 4.56D+03 ExpMxC= 6.82D+02 IAcc=2 IRadAn=         4 AccDes= 0.00D+00
 Harris functional with IExCor=  402 and IRadAn=       4 diagonalized for initial guess.
 HarFok:  IExCor=  402 AccDes= 0.00D+00 IRadAn=         4 IDoV= 1 UseB2=F ITyADJ=14
 ICtDFT=  3500011 ScaDFX=  1.000000  1.000000  1.000000  1.000000
 FoFCou: FMM=F IPFlag=           0 FMFlag=      100000 FMFlg1=           0
         NFxFlg=           0 DoJE=T BraDBF=F KetDBF=T FulRan=T
         wScrn=  0.000000 ICntrl=       500 IOpCl=  0 I1Cent=   200000004 NGrid=           0
         NMat0=    1 NMatS0=      1 NMatT0=    0 NMatD0=    1 NMtDS0=    0 NMtDT0=    0
 Petite list used in FoFCou.
 Requested convergence on RMS density matrix=1.00D-08 within 128 cycles.
 Requested convergence on MAX density matrix=1.00D-06.
 Requested convergence on             energy=1.00D-06.
 No special actions if energy rises.
 Inv3:  Mode=1 IEnd=     7460787.
 Iteration    1 A*A^-1 deviation from unit magnitude is 4.55D-15 for   1549.
 Iteration    1 A*A^-1 deviation from orthogonality  is 2.78D-15 for   1555    672.
 Iteration    1 A^-1*A deviation from unit magnitude is 4.55D-15 for   1549.
 Iteration    1 A^-1*A deviation from orthogonality  is 2.79D-15 for   1551    670.
 Error on total polarization charges =  0.00639
 SCF Done:  E(RB3LYP) =  -388.313738178     A.U. after   10 cycles
            NFock= 10  Conv=0.65D-08     -V/T= 2.0048
 DoSCS=F DFT=T ScalE2(SS,OS)=  1.000000  1.000000
 Range of M.O.s used for correlation:     1   252
 NBasis=   252 NAE=    36 NBE=    36 NFC=     0 NFV=     0
 NROrb=    252 NOA=    36 NOB=    36 NVA=   216 NVB=   216
 Symmetrizing basis deriv contribution to polar:
 IMax=3 JMax=2 DiffMx= 0.00D+00
 G2DrvN: will do    23 centers at a time, making    1 passes.
 Calling FoFCou, ICntrl=  3107 FMM=F I1Cent=   0 AccDes= 0.00D+00.
 NEqPCM:  Using equilibrium solvation (IEInf=0, Eps=   2.2139, EpsInf=   2.1934)
 G2PCM: DoFxE=T DoFxN=T DoGrad=T DoDP/DQ/DG/TGxP=FFFF NFrqRd=   0 IEInf=0 SqF1=F DoCFld=F IF1Alg=4.
 End of G2Drv F.D. properties file   721 does not exist.
 End of G2Drv F.D. properties file   722 does not exist.
 End of G2Drv F.D. properties file   788 does not exist.
          IDoAtm=1111111111111111111111
 NEqPCM:  Using equilibrium solvation (IEInf=0, Eps=   2.2139, EpsInf=   2.1934)
          Differentiating once with respect to electric field.
                with respect to dipole field.
          Differentiating once with respect to nuclear coordinates.
 Keep R1 ints in memory in canonical form, NReq=629995440.
          There are    69 degrees of freedom in the 1st order CPHF.  IDoFFX=6 NUNeed=     3.
     66 vectors produced by pass  0 Test12= 1.13D-14 1.45D-09 XBig12= 2.68D+02 1.37D+01.
 AX will form    66 AO Fock derivatives at one time.
     66 vectors produced by pass  1 Test12= 1.13D-14 1.45D-09 XBig12= 3.90D+01 9.03D-01.
     66 vectors produced by pass  2 Test12= 1.13D-14 1.45D-09 XBig12= 3.38D-01 6.18D-02.
     66 vectors produced by pass  3 Test12= 1.13D-14 1.45D-09 XBig12= 7.62D-04 4.59D-03.
     66 vectors produced by pass  4 Test12= 1.13D-14 1.45D-09 XBig12= 1.32D-06 1.77D-04.
     49 vectors produced by pass  5 Test12= 1.13D-14 1.45D-09 XBig12= 1.37D-09 3.30D-06.
      7 vectors produced by pass  6 Test12= 1.13D-14 1.45D-09 XBig12= 1.32D-12 1.15D-07.
      3 vectors produced by pass  7 Test12= 1.13D-14 1.45D-09 XBig12= 1.32D-15 4.22D-09.
 InvSVY:  IOpt=1 It=  1 EMax= 7.11D-15
 Solved reduced A of dimension   389 with    69 vectors.
 Isotropic polarizability for W=    0.000000      132.49 Bohr**3.
 End of Minotr F.D. properties file   721 does not exist.
 End of Minotr F.D. properties file   722 does not exist.
 End of Minotr F.D. properties file   788 does not exist.
 D2PCM: PCM CHGder 2nd derivatives, FixD1E=F FixD2E=F DoIter=F DoCFld=F I1PDM=0
 Calling FoFJK, ICntrl=    100127 FMM=F ISym2X=0 I1Cent= 0 IOpClX= 0 NMat=1 NMatS=1 NMatT=0.
 ***** Axes restored to original set *****
 -------------------------------------------------------------------
 Center     Atomic                   Forces (Hartrees/Bohr)
 Number     Number              X              Y              Z
 -------------------------------------------------------------------
      1        6           0.000003646   -0.000010156    0.000005953
      2        6          -0.000025509   -0.000021727   -0.000021645
      3        6           0.000220976    0.000107310   -0.000154574
      4        6          -0.000165295   -0.000030649    0.000183812
      5        6          -0.000002069    0.000035187    0.000003844
      6        6           0.000009777   -0.000037919   -0.000006284
      7        6          -0.000019766   -0.000007110   -0.000018537
      8        6          -0.000008297   -0.000027016   -0.000005920
      9        6           0.000001346   -0.000003164   -0.000004316
     10        6          -0.000000669   -0.000005860    0.000019258
     11        1          -0.000005866    0.000003268   -0.000002226
     12        1          -0.000003447   -0.000000240   -0.000007317
     13        1          -0.000018200   -0.000005592    0.000010839
     14        1           0.000003777   -0.000005496   -0.000009765
     15        1          -0.000009466    0.000006431   -0.000002709
     16        1           0.000007370    0.000006052   -0.000003399
     17        1           0.000001316    0.000005845    0.000000403
     18        1           0.000005415   -0.000000312    0.000002209
     19        1          -0.000004892   -0.000003132    0.000005039
     20        1           0.000004034   -0.000004963   -0.000000420
     21        1           0.000002156   -0.000001326    0.000004775
     22        1           0.000003662    0.000000569    0.000000981
 -------------------------------------------------------------------
 Cartesian Forces:  Max     0.000220976 RMS     0.000048321
 FormGI is forming the generalized inverse of G from B-inverse, IUseBI=4.

 GradGradGradGradGradGradGradGradGradGradGradGradGradGradGradGradGradGrad
 Berny optimization.
 Internal  Forces:  Max     0.000248957 RMS     0.000023451
 Search for a saddle point.
 Step number   2 out of a maximum of  132
 All quantities printed in internal units (Hartrees-Bohrs-Radians)
 Swapping is turned off.
 Second derivative matrix not updated -- analytic derivatives used.
 ITU=  0  0
     Eigenvalues ---   -0.05286   0.00454   0.00605   0.01071   0.01138
     Eigenvalues ---    0.01179   0.01308   0.01446   0.01779   0.01827
     Eigenvalues ---    0.02347   0.02902   0.03662   0.03879   0.04179
     Eigenvalues ---    0.04215   0.04328   0.04573   0.05088   0.05685
     Eigenvalues ---    0.05908   0.06293   0.06479   0.06999   0.08081
     Eigenvalues ---    0.08990   0.09265   0.09999   0.10116   0.10507
     Eigenvalues ---    0.10648   0.10765   0.14135   0.18139   0.18164
     Eigenvalues ---    0.20696   0.22200   0.24174   0.24598   0.26354
     Eigenvalues ---    0.28003   0.28178   0.31924   0.32038   0.32826
     Eigenvalues ---    0.33286   0.34292   0.35372   0.35806   0.35896
     Eigenvalues ---    0.35942   0.35987   0.36177   0.36235   0.36840
     Eigenvalues ---    0.37251   0.39174   0.42646   0.46941   0.51664
 Eigenvectors required to have negative eigenvalues:
                          R6        D52       D27       R9        D24
   1                    0.71892  -0.17898   0.17232  -0.16962   0.16458
                          D36       D37       D5        D51       R4
   1                    0.15615  -0.15277   0.13565  -0.12950  -0.12912
 RFO step:  Lambda0=7.763434542D-07 Lambda=-1.68798840D-06.
 Linear search not attempted -- option 19 set.
[...]
 5,0.00013640,0.00271147,-0.00058173,0.00104762,0.00021174,0.00076544,0
 .00077713,0.09507933,0.17395644,0.00236254,0.00457965,0.00380617,-0.09
 897344,-0.11119628,-0.14384600,-0.00234978,-0.01237800,-0.00550166,-0.
 00023224,0.00010731,0.00011020,-0.00017575,-0.00034024,0.00021735,-0.0
 0281800,0.00089813,0.00188192,-0.00012721,0.00029769,0.00007346,-0.000
 30556,-0.00010233,0.00016864,-0.00015699,0.00011655,0.00009171,-0.0061
 4645,-0.00010329,0.00085534,0.00158543,-0.00064281,-0.00134380,0.10499
 982,0.11887022,0.14399987,-0.00299161,-0.00183183,-0.00656577,-0.00134
 829,0.02636802,-0.00583679,-0.04252848,0.04270302,-0.02505016,-0.00382
 508,-0.00978007,0.00496113,-0.00179224,0.00267890,0.00151086,0.0017612
 8,-0.00321946,-0.00006707,0.00011133,-0.00040150,-0.00031212,0.0000332
 3,-0.00024513,-0.00005435,0.00126068,-0.00114582,0.00098890,-0.0014076
 4,-0.00363635,0.00457230,-0.00017334,0.00134361,0.00025258,-0.00111128
 ,-0.00097244,0.00190086,0.04911319,-0.00012409,-0.00005438,0.00083322,
 -0.00259649,-0.00026776,-0.00121761,0.05064262,-0.30140858,0.07986193,
 0.00111003,-0.00012494,-0.00039867,0.00028820,-0.00041117,-0.00015462,
 -0.00068187,-0.00307779,-0.00241291,0.00033589,0.00032264,0.00028140,-
 0.00005273,0.00009120,-0.00026712,-0.00020296,0.00002332,0.00014172,0.
 00316719,-0.01016185,0.01087026,0.00016390,-0.00006052,-0.00020141,0.0
 0054734,0.00013160,0.00038346,-0.05278887,0.31482948,-0.00344705,0.003
 69621,0.00155740,0.00460732,0.01278669,-0.00006658,-0.03286548,0.08308
 930,-0.07424579,0.00331821,0.00852607,-0.00468681,0.00166267,-0.002795
 90,-0.00145673,-0.00348290,-0.00218815,-0.00459073,-0.00011312,0.00007
 777,0.00008009,0.00021473,0.00011969,0.00017566,-0.00113466,0.00032012
 ,-0.00017960,0.00596803,-0.01672341,0.00929591,-0.00029751,0.00076417,
 0.00068703,0.00146903,-0.00036956,-0.00076851,0.02551388,-0.08754342,0
 .07103262,0.00161191,0.00307497,0.00084480,0.00268431,-0.00286522,0.00
 505416,-0.01195184,0.00451993,0.01167812,-0.05626113,-0.04034932,-0.07
 745232,0.00283834,-0.00571121,-0.00091783,-0.00423190,0.00083506,0.001
 75158,0.00217849,-0.00067360,-0.00091446,-0.00333329,0.00201109,-0.002
 60478,-0.00559749,-0.01383836,-0.01352823,-0.00067669,-0.00029288,-0.0
 0027664,0.00000225,0.00010653,-0.00003764,-0.00010440,-0.00009450,-0.0
 0029429,0.00089865,-0.00021233,-0.00066133,0.07327123,0.00004673,0.000
 42947,0.00026759,0.00146122,-0.00011409,0.00084626,-0.00241799,0.00189
 246,0.00297290,-0.04669517,-0.15502962,-0.13223255,-0.01019626,-0.0125
 7885,-0.02304395,-0.00103460,-0.00102441,0.00036943,0.00145845,-0.0051
 6994,0.00017103,0.00189066,-0.00114201,0.00146814,0.00278777,0.0078529
 6,0.00877288,-0.00055736,-0.00007820,0.00033692,0.00003167,-0.00001536
 ,-0.00000187,0.00014830,0.00014979,-0.00013951,0.00029137,0.00009468,-
 0.00011794,0.05423330,0.16213877,-0.00154310,-0.00382166,-0.00105195,-
 0.00404209,0.00369948,-0.00055495,0.00790827,-0.00284903,-0.00816673,-
 0.08322357,-0.14214634,-0.20078840,0.00165595,0.01133301,0.00816062,0.
 00382015,0.00087739,-0.00035780,-0.00237877,0.00177401,0.00040737,-0.0
 0103919,0.00075466,-0.00088062,0.00197627,-0.00901014,-0.00739846,-0.0
 0001857,0.00041763,0.00015728,-0.00006464,-0.00003000,0.00005455,0.000
 42661,0.00013265,-0.00006719,-0.00034862,0.00033484,0.00007105,0.07657
 775,0.13998681,0.20949461,0.00081231,0.00360061,0.00435432,0.00183751,
 -0.00211875,-0.00008512,-0.00364217,-0.00075410,0.00164926,0.00521667,
 0.00024836,0.00089054,-0.08921732,0.05532538,-0.11212541,-0.00856651,-
 0.00159549,0.00683899,-0.00763839,0.01379840,-0.01504886,-0.00123353,-
 0.00334552,-0.00222100,0.00149229,0.00026589,-0.00289513,-0.00005273,0
 .00026408,-0.00048171,-0.00009034,0.00004056,-0.00018792,0.00002838,-0
 .00008603,-0.00000281,0.00003404,-0.00006626,-0.00014774,-0.00131728,-
 0.00017893,0.00125834,0.10285881,-0.00102349,-0.00057804,-0.00080495,-
 0.00035108,0.00036299,-0.00004964,0.00105595,-0.00087280,-0.00009273,0
 .01404924,-0.00598125,0.02077127,0.05643464,-0.12498942,0.11282392,0.0
 0208466,0.00092781,-0.00211893,-0.00320911,0.00966056,-0.01096880,-0.0
 0323636,-0.00129616,-0.00190574,-0.00133191,-0.00448371,0.00188491,0.0
 0022521,-0.00019399,-0.00022969,-0.00007387,0.00009281,0.00008154,-0.0
 0004311,-0.00001669,0.00001286,-0.00024674,-0.00000457,0.00020340,0.00
 009487,0.00131866,-0.00109763,-0.06581843,0.12564097,-0.00221589,-0.00
 384292,-0.00068561,-0.00168740,0.00291440,-0.00028311,0.00338459,-0.00
 008306,-0.00087865,-0.00219603,-0.00454464,0.00385728,-0.11931153,0.11
 753601,-0.20990133,0.00615197,0.00025621,-0.00476538,0.00214540,0.0072
 4757,-0.00410830,-0.00307365,0.00085591,-0.00148127,-0.00161530,-0.001
 49719,0.00234931,-0.00042521,-0.00016819,0.00038902,0.00028686,-0.0000
 4723,-0.00003817,-0.00007927,0.00000710,0.00004435,-0.00011858,-0.0000
 0173,0.00022248,0.00169872,0.00108471,-0.00088577,0.11736223,-0.120167
 77,0.21575060,0.00248240,-0.02355959,-0.00250049,-0.00174475,0.0005949
 0,-0.00601851,0.00039764,0.00402057,-0.00086132,-0.00068284,-0.0009269
 0,0.00083741,-0.00098085,0.00397805,0.00095272,-0.03747341,-0.01998469
 ,-0.01780390,0.00084056,0.00017580,0.00014166,-0.00049584,0.00007070,-
 0.00040945,0.00028967,-0.00013106,0.00007112,-0.00061672,0.00677986,0.
 00506288,-0.00140114,0.00075098,0.00214507,0.00031185,-0.00121027,-0.0
 0000369,0.00167662,0.00089730,-0.00038874,-0.00000770,0.00034314,-0.00
 011187,0.00046599,-0.00013955,-0.00003789,0.03646267,0.00311796,-0.003
 99818,0.00154030,-0.00074240,0.00008292,-0.00171714,0.00120580,-0.0022
 1795,0.00235642,-0.00066791,-0.00042820,0.00051411,-0.00029142,0.00079
 800,0.00028841,-0.02854425,-0.32832367,-0.05839875,0.00021033,-0.00005
 491,-0.00010642,0.00018525,-0.00002722,0.00008515,0.00001455,0.0000491
 5,-0.00007589,-0.00280499,-0.00902159,-0.00821623,-0.00055550,0.000178
 71,-0.00025105,-0.00007298,-0.00028576,0.00021854,-0.00029164,-0.00064
 568,-0.00067519,0.00006240,0.00004601,-0.00006050,0.00011649,-0.000019
 16,-0.00021772,0.02891956,0.34368025,0.00402361,-0.01428308,0.00128237
 ,-0.00389780,-0.00331672,0.00110780,-0.00307969,0.00120999,-0.00436431
 ,0.00098954,0.00123796,-0.00105237,0.00108978,-0.00344991,-0.00125594,
 -0.02261152,-0.06197598,-0.05880798,-0.00076118,-0.00011913,-0.0000285
 5,0.00061755,-0.00000590,0.00034073,-0.00013915,0.00014510,-0.00016817
 ,0.00439183,0.01752979,0.00859124,0.00177856,0.00063646,-0.00105274,-0
 .00013290,-0.00086693,0.00075574,-0.00065268,0.00053281,0.00162286,-0.
 00008724,-0.00028361,0.00017216,-0.00033013,-0.00000359,-0.00007141,0.
 01855499,0.06418870,0.05259975,-0.00010932,-0.00016728,-0.00004450,-0.
 00020283,0.00014665,0.00006156,0.00037687,0.00022063,-0.00030368,-0.00
 195144,-0.00184341,-0.00435171,0.00023739,-0.02112157,0.00174102,0.000
 83235,0.00007888,-0.00036452,-0.06078736,-0.05440965,-0.01292826,0.007
 61477,0.01675917,0.00197445,0.00203486,0.00184324,-0.00710480,-0.00011
 106,0.00007087,0.00027519,0.00000401,-0.00000805,-0.00001468,0.0000093
 3,0.00000966,0.00001814,0.00001700,-0.00003480,0.00003193,0.00008580,-
 0.00136060,0.00033134,-0.00019350,0.00086313,0.00020422,-0.00030335,0.
 00012511,0.00017282,0.05373372,-0.00012944,-0.00009299,0.00000460,-0.0
 0021125,0.00011538,0.00005058,0.00027142,-0.00003837,-0.00016426,0.000
 04017,-0.00061057,-0.00026155,0.00236037,-0.00287157,0.00163497,0.0002
 8677,0.00002480,-0.00020779,-0.05381177,-0.32446744,-0.02107973,-0.008
 13091,-0.01356741,-0.00555579,0.00069606,-0.00149859,0.00226412,-0.000
 13934,-0.00002911,0.00010636,-0.00000147,0.00000992,-0.00002576,0.0000
 2364,0.00000415,-0.00003051,-0.00001278,0.00004188,0.00004388,-0.00022
 655,-0.00018120,0.00016788,-0.00040309,0.00000725,-0.00032545,-0.00017
 167,0.00012382,0.00011076,0.05902715,0.34379906,-0.00001580,-0.0001309
 1,-0.00013635,-0.00010825,0.00017285,-0.00024451,0.00055456,-0.0004059
 6,-0.00005806,-0.00413806,-0.00175405,0.00018322,0.00071368,-0.0133257
 5,0.00268390,0.00000770,0.00008026,0.00022567,-0.01596544,-0.02340630,
 -0.04846983,0.00449869,0.01276170,0.00720743,-0.00634054,0.00208189,0.
 00599941,-0.00005804,-0.00001821,-0.00008173,-0.00002163,-0.00000006,-
 0.00002252,-0.00001974,-0.00000056,-0.00002013,-0.00018364,0.00005404,
 0.00011494,-0.00000565,-0.00037716,0.00024029,0.00091323,0.00046265,-0
 .00016480,0.00000189,-0.00001166,0.00007377,0.01691409,0.02356414,0.03
 551549,0.00036986,0.00075151,0.00029985,0.00080436,-0.00029010,-0.0001
 9924,0.00006419,-0.00013738,0.00009480,0.00038530,-0.00136522,-0.00092
 412,0.00330562,0.00315387,-0.00514517,-0.00037824,0.00012554,0.0000976
 5,-0.00651285,-0.00541863,-0.00849032,-0.21369261,-0.02450866,-0.15075
 646,-0.00232416,0.00277709,-0.00145281,-0.00014065,-0.00004966,0.00014
 390,0.00003619,-0.00000475,-0.00001062,-0.00002708,-0.00002406,0.00004
 159,-0.00001027,0.00002920,-0.00000091,-0.00018277,0.00033783,-0.00054
 728,-0.00096085,-0.00076438,-0.00043762,-0.00000870,-0.00001339,-0.000
 00988,-0.00164301,0.00055055,0.00272004,0.22130740,-0.00016244,0.00015
 525,0.00006431,0.00022052,0.00008775,0.00004892,0.00004975,-0.00002660
 ,-0.00009189,-0.00083085,-0.00513853,-0.00191768,0.00168252,-0.0035701
 7,0.00236409,-0.00032514,-0.00000038,0.00011828,0.01808535,0.00863149,
 0.01385067,-0.02636143,-0.06006408,-0.01924152,-0.01780826,0.00472325,
 -0.01411899,0.00004132,-0.00000182,-0.00009889,0.00001402,0.00000557,-
 0.00001475,0.00000225,-0.00000070,0.00000503,0.00002207,0.00003815,-0.
 00003186,-0.00139245,0.00063146,-0.00043898,0.00090824,0.00081281,0.00
 048805,0.00000851,0.00001038,-0.00000400,-0.00065251,0.00060547,-0.000
 87677,0.02555761,0.05243333,-0.00058681,-0.00096052,-0.00017729,-0.001
 15510,0.00048209,0.00047001,0.00023037,0.00012861,-0.00041364,0.000115
 74,0.00073699,0.00009516,-0.00481723,-0.00015165,0.00338365,0.00050607
 ,-0.00003633,-0.00018430,-0.00653119,-0.00616591,-0.00113149,-0.152894
 66,-0.01558540,-0.15434825,-0.00182058,0.00250895,-0.00250022,-0.00006
 726,0.00004084,-0.00008389,-0.00000673,0.00002180,-0.00002237,0.000059
 41,0.00001929,-0.00007997,0.00000759,-0.00002449,0.00003546,-0.0005686
 3,-0.00026276,0.00076516,-0.00017461,0.00043858,0.00055850,-0.00001497
 ,0.00001668,0.00003150,0.00256284,0.00002482,-0.00285843,0.16505539,0.
 01940934,0.15607914,-0.00035242,-0.00082720,-0.00043174,-0.00067985,0.
 00049593,0.00029566,0.00063885,0.00138553,-0.00159975,0.00477015,0.015
 42849,-0.01688214,-0.00495491,0.00109530,-0.00304787,0.00097007,-0.000
 07966,-0.00004896,0.00049138,-0.00241391,-0.00074807,-0.00174685,-0.00
 444766,0.01137387,-0.05182702,-0.03073338,0.03358191,-0.00030649,-0.00
 005070,0.00022840,0.00009683,-0.00003813,-0.00006642,-0.00002906,0.000
 03781,0.00005477,-0.00032121,-0.00044387,-0.00005780,-0.00084355,0.000
 05607,-0.00049135,-0.00027682,0.00139920,0.00042651,-0.00000635,-0.000
 04986,0.00004878,0.00081350,-0.00011339,-0.00047098,0.00009361,0.00031
 384,-0.00031109,0.05721172,-0.00014540,0.00028046,-0.00033847,0.000113
 74,-0.00000821,0.00023807,-0.00110222,0.00077114,0.00033535,0.00029844
 ,-0.00349220,0.00233311,-0.00076791,-0.00103350,0.00177445,-0.00026690
 ,-0.00012697,0.00018647,-0.00190278,-0.00343359,-0.00090884,-0.0030282
 7,-0.01654556,0.02169055,-0.02957835,-0.13462603,0.12119571,0.00059764
 ,0.00005679,0.00004556,0.00002695,0.00001837,-0.00007581,-0.00008091,0
 .00000517,0.00000785,0.00045114,0.00029124,-0.00034374,0.00012619,-0.0
 0020874,0.00018415,0.00041999,-0.00040257,-0.00003257,-0.00001716,0.00
 003910,-0.00005698,0.00162270,-0.00087916,-0.00107860,0.00006750,0.000
 50867,-0.00090880,0.03063660,0.14992574,-0.00025940,-0.00054724,0.0000
 3215,-0.00002328,0.00025065,-0.00031588,0.00259023,-0.00001629,-0.0006
 4437,0.00228047,0.00670465,-0.00923674,-0.00126934,0.00081502,-0.00113
 011,0.00053299,-0.00020144,0.00019670,-0.00087995,-0.00208656,-0.00158
 472,-0.00124816,-0.00665405,0.01063153,0.03347930,0.12076448,-0.198072
 90,-0.00038187,0.00027177,0.00073796,-0.00005489,-0.00003360,0.0000830
 3,-0.00001516,0.00001684,-0.00001429,-0.00068994,-0.00045114,0.0005840
 7,-0.00092018,0.00044348,-0.00052228,-0.00030436,0.00063183,0.00049483
 ,-0.00000665,-0.00003169,0.00002160,0.00078053,-0.00033283,-0.00049406
 ,0.00017499,0.00092580,0.00005363,-0.03869888,-0.13250749,0.21593890,0
 .00009715,0.00192184,0.00074391,0.00129648,-0.00085242,0.00064442,-0.0
 0266809,0.00062592,-0.00076893,-0.01773117,0.01396227,0.01303736,-0.00
 020823,-0.00075740,-0.00153975,-0.00225762,0.00012496,0.00002868,-0.00
 233083,-0.00170519,-0.00102216,0.01099328,-0.00760585,-0.00828078,-0.1
 4151712,0.07509252,0.09822703,0.00060656,-0.00014988,-0.00076805,0.000
 13750,0.00003614,-0.00015004,-0.00006755,-0.00006012,-0.00004626,0.000
 23872,0.00003414,-0.00011777,0.00109743,-0.00068540,-0.00026434,0.0002
 6064,0.00026408,-0.00027806,-0.00003884,0.00006343,0.00001410,-0.00043
 273,0.00004590,0.00093060,-0.00040942,0.00062961,0.00036718,-0.0039690
 6,0.00273690,0.00488373,0.15693126,-0.00059405,-0.00063486,-0.00046952
 ,-0.00038890,0.00070717,-0.00021478,0.00028787,0.00020575,0.00024220,0
 .00387777,-0.00337156,-0.00240126,-0.00039861,0.00017021,-0.00079978,0
 .00096712,-0.00005902,0.00014452,-0.00219747,-0.00195479,-0.00141437,0
 .01724183,-0.01794080,-0.01550301,0.07877793,-0.09599353,-0.07494749,-
 0.00020067,0.00004904,0.00017827,0.00002793,-0.00001977,-0.00000724,-0
 .00005291,0.00001647,0.00004610,0.00011993,0.00014061,-0.00007610,-0.0
 0022753,0.00073067,0.00029512,0.00005493,-0.00016437,0.00015379,-0.000
 03080,-0.00000658,0.00000409,-0.00107494,-0.00036850,0.00215436,-0.000
 70846,0.00013531,0.00023301,-0.01184140,0.00950516,0.01188913,-0.08349
 972,0.10902286,0.00003382,0.00105169,0.00048989,0.00103978,-0.00049759
 ,0.00017067,-0.00132049,-0.00003815,-0.00010316,-0.01124159,0.00942433
 ,0.00727050,0.00114064,0.00066504,-0.00084161,-0.00142717,0.00000941,0
 .00047003,-0.00348506,-0.00031922,-0.00174834,0.00501220,-0.00700481,-
 0.00445176,0.09915078,-0.07181734,-0.13264793,-0.00009783,0.00026706,-
 0.00034328,0.00004513,0.00000233,0.00002265,-0.00001353,-0.00004152,0.
 00004075,-0.00014163,-0.00015159,0.00000797,0.00039112,-0.00037566,0.0
 0116617,0.00033719,0.00017872,-0.00031369,0.00003108,-0.00000685,-0.00
 000800,-0.00007025,-0.00001121,0.00024661,-0.00050529,-0.00045183,0.00
 022023,0.01658124,-0.01147270,-0.01689958,-0.10561220,0.08041793,0.147
 11794,-0.00024875,-0.00175826,-0.00251799,-0.00005987,0.00226041,-0.00
 189999,-0.00031819,0.00070825,-0.00104706,0.00012724,0.00026992,0.0001
 4301,-0.00118041,-0.00048718,-0.00012538,0.00356685,-0.00058311,-0.006
 26084,0.00100797,0.00017538,0.00153065,0.00096288,0.00037141,-0.000512
 72,0.00021250,-0.00011777,0.00020339,-0.13154588,-0.00953184,0.1162757
 3,-0.00057040,-0.00002578,0.00063070,-0.00032395,-0.00005301,0.0004139
 5,0.00037351,0.00035136,0.00026850,-0.00017415,0.00000963,0.00019344,0
 .00002550,-0.00006383,0.00005583,0.00031421,-0.00019852,0.00053505,-0.
 00003015,-0.00003442,0.00003332,-0.00001248,0.00000038,-0.00006783,0.0
 0012283,-0.00012099,-0.00008186,-0.00000689,0.00003417,0.00008960,0.14
 606464,0.00045683,-0.00239118,0.00035476,-0.00038949,-0.00083155,-0.00
 086981,0.01255004,-0.00041669,-0.02242633,0.00057125,-0.00102412,-0.00
 305144,-0.00071829,-0.00199237,0.00185926,-0.01129234,-0.00325370,0.02
 252697,0.00087776,0.00007069,0.00048454,0.00008088,-0.00000817,-0.0003
 9113,-0.00052291,0.00010442,0.00013905,-0.01048696,-0.03438591,0.01203
 041,0.00065214,0.00000350,-0.00065048,-0.00061044,-0.00009947,0.000619
 17,-0.00006884,0.00009723,0.00101302,0.00062043,0.00024748,-0.00046278
 ,-0.00044148,0.00016808,0.00027725,0.00041955,-0.00020628,-0.00082289,
 -0.00002820,-0.00002205,0.00001167,-0.00000844,0.00004896,-0.00000134,
 0.00003915,0.00002174,0.00012361,-0.00001449,0.00001710,0.00004108,0.0
 1046009,0.04394825,0.00080771,0.00202217,0.00049651,0.00115675,-0.0013
 0078,0.00097367,0.00712611,0.00084244,-0.01404615,0.00136865,0.0021033
 6,-0.00288588,0.00023523,-0.00268515,-0.00187288,0.00692185,0.00157433
 ,-0.01575353,-0.00029990,-0.00015189,0.00064932,0.00049433,0.00005029,
 0.00022437,-0.00045676,0.00026335,0.00007531,0.12027650,0.01113794,-0.
 19523418,-0.00068171,0.00001086,0.00042095,-0.00055892,-0.00010797,0.0
 0031709,-0.00020584,-0.00033210,0.00045967,0.00010648,0.00003141,-0.00
 013553,0.00016590,-0.00002971,-0.00014220,-0.00038158,0.00038738,0.000
 21204,0.00008227,0.00006998,0.00004557,0.00003231,0.00000297,0.0000346
 9,0.00007128,-0.00005611,0.00011968,-0.00001959,0.00000748,-0.00002235
 ,-0.13072341,-0.01335677,0.21761815,-0.00058783,0.00156326,0.00018010,
 0.00050392,0.00016423,0.00116444,0.00011458,-0.00034735,0.00008375,-0.
 00038178,0.00063958,-0.00007464,-0.00258376,-0.00159567,0.00010581,-0.
 00690184,-0.00030177,-0.00330996,0.00131620,-0.00100245,0.00482759,-0.
 00060952,0.00142738,-0.00082022,-0.00056768,0.00092977,0.00125871,-0.2
 7903034,-0.02701334,-0.08529463,0.00026054,-0.00017245,-0.00038490,0.0
 0004245,-0.00003506,0.00025536,-0.00000883,-0.00036292,-0.00033929,0.0
 0001378,0.00003018,-0.00007473,0.00015728,-0.00016912,-0.00023991,0.00
 051889,0.00021198,-0.00051446,0.00000516,0.00008406,0.00003997,-0.0000
 6341,-0.00000291,0.00011209,0.00010464,-0.00008691,0.00011166,-0.00002
 147,-0.00017402,0.00006246,-0.01830699,-0.00214623,-0.00551765,0.30602
 601,0.00081811,-0.00374431,0.00380466,-0.00019720,-0.00438550,-0.00352
 237,-0.02384534,0.00126039,-0.00644878,-0.00110441,-0.00077719,-0.0004
 3681,0.00037361,-0.00035611,0.00102915,0.02306463,0.00658991,0.0060673
 0,0.00053391,-0.00050063,0.00112075,0.00008535,0.00089037,-0.00053996,
 0.00033997,0.00011120,-0.00089572,-0.02619107,-0.05244831,-0.01082018,
 0.00017556,0.00069276,0.00122907,-0.00040740,0.00068497,-0.00122960,0.
 00066341,0.00011522,0.00022495,0.00019918,0.00001001,-0.00004057,-0.00
 023483,0.00001079,0.00010747,-0.00078722,0.00022683,-0.00040694,-0.000
 06617,-0.00010476,0.00004243,-0.00005758,-0.00002558,0.00003620,0.0001
 5124,-0.00066704,0.00002508,-0.00020724,-0.00018657,0.00013089,-0.0016
 6630,-0.00009595,-0.00048349,0.02835978,0.05269950,-0.00196128,0.00336
 459,-0.00070497,-0.00090846,-0.00333298,-0.00061779,-0.01341777,0.0009
 6782,-0.00747043,-0.00112172,-0.00052667,-0.00100538,-0.00121459,0.000
 36634,-0.00141463,-0.01443760,-0.00362409,-0.00812356,0.00019307,0.000
 74365,-0.00060733,0.00121155,-0.00026825,0.00021664,0.00060103,-0.0007
 4881,-0.00044104,-0.08087184,-0.01031105,-0.07047794,-0.00037588,-0.00
 037475,-0.00086680,-0.00062419,0.00026711,-0.00072103,0.00051909,-0.00
 013686,0.00004755,0.00016647,0.00008348,0.00012042,0.00023479,-0.00002
 050,0.00005331,0.00074024,0.00017338,-0.00000208,0.00003200,-0.0000472
 0,0.00001413,-0.00018081,0.00000972,0.00007270,0.00019263,-0.00021116,
 0.00002084,-0.00000908,0.00006754,0.00015631,0.02286389,0.00255219,0.0
 0844569,0.08836846,0.01100649,0.08330540\\0.00000236,0.00000186,0.0000
 0133,0.00000097,-0.00000134,0.00000122,-0.00000252,-0.00000049,0.00000
 104,0.00000146,0.00000328,-0.00000157,0.00000198,-0.00000234,-0.000000
 84,-0.00000253,-0.00000150,0.00000020,-0.00000131,-0.00000032,-0.00000
 059,0.00000002,0.00000017,-0.00000022,-0.00000030,0.00000061,0.0000004
 2,0.00000003,0.00000067,-0.00000124,-0.00000017,-0.00000043,0.00000013
 ,0.00000008,-0.00000049,0.00000031,0.00000046,-0.00000005,0.00000018,-
 0.00000026,-0.00000011,0.00000036,-0.00000046,-0.00000044,0.00000051,0
 .00000024,-0.00000028,-0.00000060,-0.00000019,0.00000015,-0.00000046,-
 0.00000008,0.00000044,-0.00000028,0.00000009,0.00000013,0.,-0.00000002
 ,0.00000023,0.,0.00000003,0.00000001,-0.00000008,0.00000011,0.00000024
 ,0.00000021\\\@


      SCIENCE SANS CONSCIENCE N'EST QUE RUINE DE L'AME.

                                                  -- RABELAIS
 Job cpu time:       0 days  1 hours 14 minutes 40.2 seconds.
 Elapsed time:       0 days  0 hours  0 minutes 41.5 seconds.
 File lengths (MBytes):  RWF=    269 Int=      0 D2E=      0 Chk=     12 Scr=      2
 Normal termination of Gaussian 16 at Wed Jul 23 23:20:24 2025.
