
                                 *****************
                                 * O   R   C   A *
                                 *****************

                                            #,                                       
                                            ###                                      
                                            ####                                     
                                            #####                                    
                                            ######                                   
                                           ########,                                 
                                     ,,################,,,,,                         
                               ,,#################################,,                 
                          ,,##########################################,,             
                       ,#########################################, ''#####,          
                    ,#############################################,,   '####,        
                  ,##################################################,,,,####,       
                ,###########''''           ''''###############################       
              ,#####''   ,,,,##########,,,,          '''####'''          '####       
            ,##' ,,,,###########################,,,                        '##       
           ' ,,###''''                  '''############,,,                           
         ,,##''                                '''############,,,,        ,,,,,,###''
      ,#''                                            '''#######################'''  
     '                                                          ''''####''''         
             ,#######,   #######,   ,#######,      ##                                
            ,#'     '#,  ##    ##  ,#'     '#,    #''#        ,####,   ,####,        
            ##       ##  ##   ,#'  ##            #'  '#       #'       #'  '#        
            ##       ##  #######   ##           ,######,      #####,   #    #        
            '#,     ,#'  ##    ##  '#,     ,#' ,#      #,     #,   #   #,  ,#        
             '#######'   ##     ##  '#######'  #'      '#     '####' # '####'        



                #########################################################
                #                        -***-                          #
                #          Department of theory and spectroscopy        #
                #                                                       #
                #                      Frank Neese                      #
                #                                                       #
                #     Directorship, Architecture, Infrastructure        #
                #                    SHARK, DRIVERS                     #
                #        Core code/Algorithms in most modules           #
                #                                                       #
                #        Max Planck Institute fuer Kohlenforschung      #
                #                Kaiser Wilhelm Platz 1                 #
                #                 D-45470 Muelheim/Ruhr                 #
                #                      Germany                          #
                #                                                       #
                #                  All rights reserved                  #
                #                        -***-                          #
                #########################################################


                         Program Version 6.0.1  -  RELEASE   -


 With contributions from (in alphabetic order):
[Max-Planck-Institut fuer Kohlenforschung]                               
  Daniel Aravena         : Magnetic Suceptibility                        
  Michael Atanasov       : Ab Initio Ligand Field Theory (pilot matlab implementation)
  Alexander A. Auer      : GIAO ZORA, VPT2 properties, NMR spectrum      
  Ute Becker             : All parallelization in ORCA, NUMFREQ, NUMCALC 
  Giovanni Bistoni       : ED, misc. LED, open-shell LED, HFLD           
  Martin Brehm           : Molecular dynamics                            
  Dmytro Bykov           : pre 5.0 version of the SCF Hessian            
  Marcos Casanova-Páez   : Triplet and SCS-CIS(D). UHF-(DLPNO)-IP/EA/STEOM-CCSD. UHF-CVS-IP/STEOM-CCSD   
  Vijay G. Chilkuri      : MRCI spin determinant printing, contributions to CSF-ICE 
  Pauline Colinet        : FMM embedding                                 
  Dipayan Datta          : RHF DLPNO-CCSD density                        
  Achintya Kumar Dutta   : EOM-CC, STEOM-CC                              
  Nicolas Foglia         : Exact transition moments, OPA infrastructure, MCD improvements    
  Dmitry Ganyushin       : Spin-Orbit,Spin-Spin,Magnetic field MRCI      
  Miquel Garcia-Rates    : C-PCM and meta-GGA Hessian, CCSD/C-PCM, Gaussian charge scheme 
  Tiago L. C. Gouveia    : GS-ROHF, GS-ROCIS                             
  Yang Guo               : DLPNO-NEVPT2, F12-NEVPT2, CIM, IAO-localization        
  Andreas Hansen         : Spin unrestricted coupled pair/coupled cluster methods 
  Ingolf Harden          : AUTO-CI MPn and infrastructure                
  Benjamin Helmich-Paris : MC-RPA, TRAH-(SCF,CASSCF), AVAS, COSX integrals, SCF dyn. polar. 
  Lee Huntington         : MR-EOM, pCC                                   
  Robert Izsak           : Overlap fitted RIJCOSX, COSX-SCS-MP3, EOM     
  Riya Kayal             : Wick's Theorem for AUTO-CI, AUTO-CI UHF-CCSDT 
  Emily Kempfer          : AUTO-CI, RHF CISDT and CCSDT                  
  Christian Kollmar      : KDIIS, OOCD, Brueckner-CCSD(T), CCSD density, CASPT2, CASPT2-K, improved NEVPT2 
  Axel Koslowski         : Symmetry handling                             
  Simone Kossmann        : meta-GGA functionals, TD-DFT gradient, OOMP2, (MP2 Hessian; deprecated post 5.0) 
  Lucas Lang             : DCDCAS                                        
  Marvin Lechner         : AUTO-CI (C++ implementation), FIC-MRCC        
  Spencer Leger          : CASSCF response                               
  Dagmar Lenk            : GEPOL surface, SMD, ORCA-2-JSON               
  Dimitrios Liakos       : Extrapolation schemes; Compound Job, initial MDCI parallelization 
  Dimitrios Manganas     : Further ROCIS development; embedding schemes. LFT, Crystal Embedding 
  Dimitrios Pantazis     : SARC Basis sets                               
  Anastasios Papadopoulos: AUTO-CI, single reference methods and gradients 
  Taras Petrenko         : pre 6.0 DFT Hessian and TD-DFT gradient, (ASA, deprecated), ECA, 1-Electron XAS/XES, NRVS 
  Peter Pinski           : DLPNO-MP2, DLPNO-MP2 Gradient                 
  Christoph Reimann      : Effective Core Potentials                     
  Marius Retegan         : Local ZFS, SOC                                
  Christoph Riplinger    : Optimizer, TS searches, QM/MM, DLPNO-CCSD(T), (RO)-DLPNO pert. Triples 
  Michael Roemelt        : Original ROCIS implementation                 
  Masaaki Saitow         : Open-shell DLPNO-CCSD energy and density      
  Barbara Sandhoefer     : DKH picture change effects                    
  Kantharuban Sivalingam : CASSCF convergence/infrastructure, NEVPT2 and variants, FIC-MRCI 
  Bernardo de Souza      : ESD, SOC TD-DFT                               
  Georgi L. Stoychev     : AutoAux, RI-MP2 NMR, DLPNO-MP2 response, X2C  
  Van Anh Tran           : RI-MP2 g-tensors                              
  Willem Van den Heuvel  : Paramagnetic NMR                              
  Zikuan Wang            : NOTCH, Electric field optimization            
  Frank Wennmohs         : Technical directorship and infrastructure     
  Hang Xu                : AUTO-CI-Response properties                   
                                                                         
[FACCTs GmbH]                                                            
  Markus Bursch, Miquel Garcia-Rates, Christoph Riplinger, Bernardo de Souza, Georgi L. Stoychev 
                                                                 
  APM, Basis sets (HGBS, AHGBS, def-TZVP (Ac-Lr), def2-XVPD (La-Lu)), CI-OPT, improved COSX, DLPNO-Multilevel,           
  DOCKER, DRACO, updates on ESD, GOAT, IRC, LR-CPCM, MBIS, meta-GGA TD-DFT gradient, ML-optimized integration grids, 
  MM, NACMEs, nearIR, NEB, NEB-TS, NL-DFT gradient (VV10), 2- and 3-layer-ONIOM, interface openCOSMO-RS, QMMM,   
  Crystal-QMMM, SF, symmetry and pop. for TD-DFT, r2SCAN hybrids, SOLVATOR                                   
                                                                         
[Other institutions]                                                     
  V. Asgeirsson          : NEB                                           
  Christoph Bannwarth    : sTDA-DFT, sTD-DFT, PBEh-3c, B97-3c, D3        
  Sebastian Ehlert       : rSCAN, r2SCAN, r2SCAN-3c, D4, dhf basis sets  
  Marvin Friede          : D4 for Fr, Ra, Ac-Lr                          
  Lars Goerigk           : TD-DFT with DH, B97 family of functionals     
  Stefan Grimme          : VdW corrections, initial TS optimization, DFT functionals, gCP, sTDA/sTD-DF 
  Waldemar Hujo          : DFT-NL                                        
  H. Jonsson             : NEB                                           
  Holger Kruse           : gCP                                           
  Marcel Mueller         : wB97X-3c, vDZP basis set                      
  Hagen Neugebauer       : wr2SCAN                                       
  Tobias Risthaus        : range-separated hybrid DFT                    
  Lukas Wittmann         : regularized MP2, r2SCAN double-hybrids, wr2SCAN        
                                                                         
We gratefully acknowledge several colleagues who have allowed us to      
interface, adapt or use parts of their codes:                            
  Ed Valeev, F. Pavosevic, A. Kumar             : LibInt (2-el integral package), F12 methods 
  Garnet Chan, S. Sharma, J. Yang, R. Olivares  : DMRG                   
  Ulf Ekstrom                                   : XCFun DFT Library      
  Mihaly Kallay                                 : mrcc  (arbitrary order and MRCC methods)
  Frank Weinhold                                : gennbo (NPA and NBO analysis)           
  Simon Mueller                                 : openCOSMO-RS                            
  Christopher J. Cramer and Donald G. Truhlar   : smd solvation model                     
  S Lehtola, MJT Oliveira, MAL Marques          : LibXC Library                           
  Liviu Ungur et al                             : ANISO software                          


 Your calculation uses the libint2 library for the computation of 2-el integrals
 For citations please refer to: http://libint.valeyev.net

 Your ORCA version has been built with support for libXC version: 6.2.2
 For citations please refer to: https://libxc.gitlab.io

 This ORCA versions uses:
   CBLAS   interface :  Fast vector & matrix operations
   LAPACKE interface :  Fast linear algebra routines
   SCALAPACK package :  Parallel linear algebra routines
   Shared memory     :  Shared parallel matrices
   BLAS/LAPACK       :  OpenBLAS 0.3.27  USE64BITINT DYNAMIC_ARCH NO_AFFINITY Cooperlake SINGLE_THREADED
        Core in use  :  Cooperlake
   Copyright (c) 2011-2014, The OpenBLAS Project


NOTE: MaxCore=5000 MB was set to SCF,MP2,MDCI,CIPSI,MRCI and CIS
      => If you want to overwrite this, your respective input block should be placed after the MaxCore statement
NOTE: MaxCore=5000 MB was set to SCF,MP2,MDCI,CIPSI,MRCI and CIS
      => If you want to overwrite this, your respective input block should be placed after the MaxCore statement
================================================================================

----- Orbital basis set information -----
Your calculation utilizes the basis: def2-SVP
   F. Weigend and R. Ahlrichs, Phys. Chem. Chem. Phys. 7, 3297 (2005).



################################################################################


                                COMPOUND JOB MainJOB 
Basename: 02_Compound_0

################################################################################

================================================================================
                                       INPUT FILE
================================================================================
NAME = 02_Compound_0.inp
|  1> %maxcore  5000
|  2>  %pal nprocs  64 end
|  3>  * xyz   0   1
|  4>  C 1.023264 0.675151 1.281469
|  5>  C 0.985822 -0.66071 1.299267
|  6>  C 1.024605 -1.141781 -0.143703
|  7>  C -0.350579 -0.77226 -0.800752
|  8>  C -0.304557 0.798022 -0.824999
|  9>  C 1.095287 1.115499 -0.170662
| 10>  C -1.531125 1.210638 -0.0625
| 11>  C -2.233855 0.168441 0.377624
| 12>  C -1.633588 -1.157569 -0.023217
| 13>  C 1.922407 -0.047105 -0.769074
| 14>  H 0.904941 1.34155 2.125709
| 15>  H 0.839883 -1.296322 2.162776
| 16>  H 1.324228 -2.178456 -0.295469
| 17>  H -0.375008 -1.176812 -1.813836
| 18>  H -0.306106 1.198317 -1.844097
| 19>  H 1.451034 2.129124 -0.351449
| 20>  H -1.789604 2.249203 0.112995
| 21>  H -3.142823 0.238865 0.965471
| 22>  H -2.327078 -1.734911 -0.644587
| 23>  H -1.416784 -1.778705 0.853435
| 24>  H 2.948061 -0.074666 -0.396684
| 25>  H 1.921876 -0.059511 -1.862918
| 26>  *
| 27>  
| 28>  
| 29> 
| 30>                          ****END OF INPUT****
================================================================================
NOTE: MaxCore=5000 MB was set to SCF,MP2,MDCI,CIPSI,MRCI and CIS
      => If you want to overwrite this, your respective input block should be placed after the MaxCore statement
================================================================================

----- Orbital basis set information -----
Your calculation utilizes the basis: def2-SVP
   F. Weigend and R. Ahlrichs, Phys. Chem. Chem. Phys. 7, 3297 (2005).



################################################################################


                                COMPOUND JOB  1 
Basename: 02_Compound_1
NOTE: please remember that MaxCore and PAL settings will be ignored.

################################################################################

================================================================================
                                       INPUT FILE
================================================================================
NAME = 02_Compound_1.inp
|  1>   ! wB97M-V SCNL def2-QZVPP
|  2> 
|  3>                          ****END OF INPUT****
================================================================================
Your calculation utilizes the DFT-NL dispersion correction.
Cite in your paper:
Vydrov, O. A.; Van Voorhis, T. J. Chem. Phys. 2010, 133, 244103
Hujo, W.; Grimme, S. J. Chem. Theory Comput. 2011, 7, 3866 
   

Warning: RI is on but no J-basis has been assigned. Assigning Def2/J (nothing to worry about!)
================================================================================

----- Orbital basis set information -----
Your calculation utilizes the basis: def2-QZVPP
   F. Weigend and R. Ahlrichs, Phys. Chem. Chem. Phys. 7, 3297 (2005).

----- AuxJ basis set information -----
Your calculation utilizes the auxiliary basis: def2/J
   F. Weigend, Phys. Chem. Chem. Phys. 8, 1057 (2006).

================================================================================
                                        WARNINGS
                       Please study these warnings very carefully!
================================================================================


WARNING: B97M-V or wB97M-V functional requested.
  ===> : libXC variant has now been activated.
         Any manually given DFX/HFX/RangeSep scaling parameters are IGNORED!


WARNING: Self-consistent DFT-NL dispersion not compatible with AutoTRAH.
  ===>   Switching AutoTRAH off



                       ****************************
                       * Single Point Calculation *
                       ****************************

---------------------------------
CARTESIAN COORDINATES (ANGSTROEM)
---------------------------------
  C      1.023264    0.675151    1.281469
  C      0.985822   -0.660710    1.299267
  C      1.024605   -1.141781   -0.143703
  C     -0.350579   -0.772260   -0.800752
  C     -0.304557    0.798022   -0.824999
  C      1.095287    1.115499   -0.170662
  C     -1.531125    1.210638   -0.062500
  C     -2.233855    0.168441    0.377624
  C     -1.633588   -1.157569   -0.023217
  C      1.922407   -0.047105   -0.769074
  H      0.904941    1.341550    2.125709
  H      0.839883   -1.296322    2.162776
  H      1.324228   -2.178456   -0.295469
  H     -0.375008   -1.176812   -1.813836
  H     -0.306106    1.198317   -1.844097
  H      1.451034    2.129124   -0.351449
  H     -1.789604    2.249203    0.112995
  H     -3.142823    0.238865    0.965471
  H     -2.327078   -1.734911   -0.644587
  H     -1.416784   -1.778705    0.853435
  H      2.948061   -0.074666   -0.396684
  H      1.921876   -0.059511   -1.862918

----------------------------
CARTESIAN COORDINATES (A.U.)
----------------------------
  NO LB      ZA    FRAG     MASS         X           Y           Z
   0 C     6.0000    0    12.011    1.933689    1.275850    2.421625
   1 C     6.0000    0    12.011    1.862934   -1.248561    2.455259
   2 C     6.0000    0    12.011    1.936223   -2.157653   -0.271559
   3 C     6.0000    0    12.011   -0.662498   -1.459360   -1.513202
   4 C     6.0000    0    12.011   -0.575529    1.508043   -1.559022
   5 C     6.0000    0    12.011    2.069792    2.107988   -0.322504
   6 C     6.0000    0    12.011   -2.893407    2.287774   -0.118108
   7 C     6.0000    0    12.011   -4.221374    0.318307    0.713606
   8 C     6.0000    0    12.011   -3.087034   -2.187488   -0.043874
   9 C     6.0000    0    12.011    3.632823   -0.089016   -1.453339
  10 H     1.0000    0     1.008    1.710091    2.535162    4.017008
  11 H     1.0000    0     1.008    1.587149   -2.449694    4.087054
  12 H     1.0000    0     1.008    2.502428   -4.116685   -0.558355
  13 H     1.0000    0     1.008   -0.708662   -2.223852   -3.427653
  14 H     1.0000    0     1.008   -0.578457    2.264491   -3.484838
  15 H     1.0000    0     1.008    2.742057    4.023461   -0.664142
  16 H     1.0000    0     1.008   -3.381861    4.250378    0.213530
  17 H     1.0000    0     1.008   -5.939075    0.451389    1.824476
  18 H     1.0000    0     1.008   -4.397540   -3.278507   -1.218093
  19 H     1.0000    0     1.008   -2.677334   -3.361265    1.612758
  20 H     1.0000    0     1.008    5.571028   -0.141098   -0.749624
  21 H     1.0000    0     1.008    3.631819   -0.112459   -3.520405

--------------------------------
INTERNAL COORDINATES (ANGSTROEM)
--------------------------------
 C      0   0   0     0.000000000000     0.00000000     0.00000000
 C      1   0   0     1.336504127749     0.00000000     0.00000000
 C      2   1   0     1.521543903090   107.61849568     0.00000000
 C      3   2   1     1.568244302301   107.48671922   289.76974206
 C      4   3   2     1.571143373794   102.49050685    66.88285692
 C      1   2   3     1.519137292938   107.68510055   359.70235558
 C      5   4   3     1.502040527776   104.05178837   237.01700999
 C      7   5   4     1.331808235102   112.56144907     0.26866776
 C      8   7   5     1.509733916513   112.94071683   358.93084069
 C      6   1   2     1.547214425010   100.20912588   326.81955590
 H      1   2   3     1.082048583535   127.02173882   172.94370638
 H      2   1   3     1.082103783999   126.97795859   186.45534456
 H      3   2   1     1.089725615240   116.09539954   160.76690325
 H      4   3   2     1.091145401769   108.73967998   184.34410607
 H      5   4   3     1.094896899270   112.31652994   115.94971863
 H      6   1   2     1.089346367324   116.34914934   199.13854301
 H      7   5   4     1.084540062741   122.67164131   179.34983911
 H      8   7   5     1.084779452335   124.77917185   178.78890397
 H      9   8   7     1.095606152759   111.20739229   240.86993448
 H      9   8   7     1.096053207657   111.34777303   122.55323981
 H     10   6   1     1.091512734024   112.91416689   293.25422525
 H     10   6   1     1.093914478894   113.26626653   167.44340283

---------------------------
INTERNAL COORDINATES (A.U.)
---------------------------
 C      0   0   0     0.000000000000     0.00000000     0.00000000
 C      1   0   0     2.525626778300     0.00000000     0.00000000
 C      2   1   0     2.875301277577   107.61849568     0.00000000
 C      3   2   1     2.963552242430   107.48671922   289.76974206
 C      4   3   2     2.969030693596   102.49050685    66.88285692
 C      1   2   3     2.870753443479   107.68510055   359.70235558
 C      5   4   3     2.838445239547   104.05178837   237.01700999
 C      7   5   4     2.516752827243   112.56144907     0.26866776
 C      8   7   5     2.852983637302   112.94071683   358.93084069
 C      6   1   2     2.923811533722   100.20912588   326.81955590
 H      1   2   3     2.044775486478   127.02173882   172.94370638
 H      2   1   3     2.044879800239   126.97795859   186.45534456
 H      3   2   1     2.059282973922   116.09539954   160.76690325
 H      4   3   2     2.061965981630   108.73967998   184.34410607
 H      5   4   3     2.069055284499   112.31652994   115.94971863
 H      6   1   2     2.058566299225   116.34914934   199.13854301
 H      7   5   4     2.049483699847   122.67164131   179.34983911
 H      8   7   5     2.049936080619   124.77917185   178.78890397
 H      9   8   7     2.070395579354   111.20739229   240.86993448
 H      9   8   7     2.071240390678   111.34777303   122.55323981
 H     10   6   1     2.062660138993   112.91416689   293.25422525
 H     10   6   1     2.067198779040   113.26626653   167.44340283

---------------------
BASIS SET INFORMATION
---------------------
There are 2 groups of distinct atoms

 Group   1 Type C   : 15s8p3d2f1g contracted to 7s4p3d2f1g pattern {8211111/5111/111/11/1}
 Group   2 Type H   : 7s3p2d1f contracted to 4s3p2d1f pattern {4111/111/11/1}

Atom   0C    basis set group =>   1
Atom   1C    basis set group =>   1
Atom   2C    basis set group =>   1
Atom   3C    basis set group =>   1
Atom   4C    basis set group =>   1
Atom   5C    basis set group =>   1
Atom   6C    basis set group =>   1
Atom   7C    basis set group =>   1
Atom   8C    basis set group =>   1
Atom   9C    basis set group =>   1
Atom  10H    basis set group =>   2
Atom  11H    basis set group =>   2
Atom  12H    basis set group =>   2
Atom  13H    basis set group =>   2
Atom  14H    basis set group =>   2
Atom  15H    basis set group =>   2
Atom  16H    basis set group =>   2
Atom  17H    basis set group =>   2
Atom  18H    basis set group =>   2
Atom  19H    basis set group =>   2
Atom  20H    basis set group =>   2
Atom  21H    basis set group =>   2
---------------------------------
AUXILIARY/J BASIS SET INFORMATION
---------------------------------
There are 2 groups of distinct atoms

 Group   1 Type C   : 12s5p4d2f1g contracted to 6s4p3d1f1g pattern {711111/2111/211/2/1}
 Group   2 Type H   : 5s2p1d contracted to 3s1p1d pattern {311/2/1}

Atom   0C    basis set group =>   1
Atom   1C    basis set group =>   1
Atom   2C    basis set group =>   1
Atom   3C    basis set group =>   1
Atom   4C    basis set group =>   1
Atom   5C    basis set group =>   1
Atom   6C    basis set group =>   1
Atom   7C    basis set group =>   1
Atom   8C    basis set group =>   1
Atom   9C    basis set group =>   1
Atom  10H    basis set group =>   2
Atom  11H    basis set group =>   2
Atom  12H    basis set group =>   2
Atom  13H    basis set group =>   2
Atom  14H    basis set group =>   2
Atom  15H    basis set group =>   2
Atom  16H    basis set group =>   2
Atom  17H    basis set group =>   2
Atom  18H    basis set group =>   2
Atom  19H    basis set group =>   2
Atom  20H    basis set group =>   2
Atom  21H    basis set group =>   2


           ************************************************************
           *        Program running with 64 parallel MPI-processes    *
           *              working on a common directory               *
           ************************************************************
------------------------------------------------------------------------------
                             ORCA STARTUP CALCULATIONS
                           -- RI-GTO INTEGRALS CHOSEN --
------------------------------------------------------------------------------
------------------------------------------------------------------------------
                   ___                                                        
                  /   \      - P O W E R E D   B Y -                         
                 /     \                                                     
                 |  |  |   _    _      __       _____    __    __             
                 |  |  |  | |  | |    /  \     |  _  \  |  |  /  |          
                  \  \/   | |  | |   /    \    | | | |  |  | /  /          
                 / \  \   | |__| |  /  /\  \   | |_| |  |  |/  /          
                |  |  |   |  __  | /  /__\  \  |    /   |      \           
                |  |  |   | |  | | |   __   |  |    \   |  |\   \          
                \     /   | |  | | |  |  |  |  | |\  \  |  | \   \       
                 \___/    |_|  |_| |__|  |__|  |_| \__\ |__|  \__/        
                                                                              
                      - O R C A' S   B I G   F R I E N D -                    
                                      &                                       
                       - I N T E G R A L  F E E D E R -                       
                                                                              
 v1 FN, 2020, v2 2021, v3 2022-2024                                           
------------------------------------------------------------------------------


----------------------
SHARK INTEGRAL PACKAGE
----------------------

Number of atoms                             ...     22
Number of basis functions                   ...    930
Number of shells                            ...    290
Maximum angular momentum                    ...      4
Integral batch strategy                     ... SHARK/LIBINT Hybrid
RI-J (if used) integral strategy            ... SPLIT-RIJ (Revised 2003 algorithm where possible)
Printlevel                                  ...      1
Contraction scheme used                     ... SEGMENTED contraction
Prescreening option                         ... SCHWARTZ
   Thresh                                   ... 1.000e-10
   Tcut                                     ... 1.000e-11
   Tpresel                                  ... 1.000e-11 
Coulomb Range Separation                    ... NOT USED
Exchange Range Separation                   ... Long Range
   Mu parameter                             ... 3.000e-01
   Scaling (regular/separated)              ... 1.500e-01 8.500e-01
Multipole approximations                    ... NOT USED
Finite Nucleus Model                        ... NOT USED
CABS basis                                  ... NOT available
Auxiliary Coulomb fitting basis             ... AVAILABLE
   # of basis functions in Aux-J            ...    622
   # of shells in Aux-J                     ...    210
   Maximum angular momentum in Aux-J        ...      4
Auxiliary J/K fitting basis                 ... NOT available
Auxiliary Correlation fitting basis         ... NOT available
Auxiliary 'external' fitting basis          ... NOT available

Checking pre-screening integrals            ... done (  0.0 sec) Dimension = 290
Check shell pair data                       ... done (  0.0 sec)
Shell pair information
Shell pair cut-off parameter TPreSel        ...   1.0e-11
Total number of shell pairs                 ...     42195
Shell pairs after pre-screening             ...     36144
Total number of primitive shell pairs       ...    100143
Primitive shell pairs kept                  ...     65409
          la=0 lb=0:   5674 shell pairs
          la=1 lb=0:   7807 shell pairs
          la=1 lb=1:   2677 shell pairs
          la=2 lb=0:   5252 shell pairs
          la=2 lb=1:   3630 shell pairs
          la=2 lb=2:   1261 shell pairs
          la=3 lb=0:   3124 shell pairs
          la=3 lb=1:   2146 shell pairs
          la=3 lb=2:   1476 shell pairs
          la=3 lb=3:    452 shell pairs
          la=4 lb=0:   1074 shell pairs
          la=4 lb=1:    715 shell pairs
          la=4 lb=2:    504 shell pairs
          la=4 lb=3:    297 shell pairs
          la=4 lb=4:     55 shell pairs

Calculating one electron integrals          ... done (  0.0 sec)
Calculating RI/J V-Matrix + Cholesky decomp.... done (  0.0 sec)
Calculating Nuclear repulsion               ... done (  0.0 sec) ENN=    535.142565875075 Eh

Diagonalization of the overlap matrix:
Smallest eigenvalue                        ... 8.953e-06
Time for diagonalization                   ...    0.130 sec
Threshold for overlap eigenvalues          ... 1.000e-07
Number of eigenvalues below threshold      ... 0
Time for construction of square roots      ...    0.064 sec
Total time needed                          ...    0.202 sec

-------------------
DFT GRID GENERATION
-------------------

General Integration Accuracy     IntAcc      ... 4.388
Radial Grid Type                 RadialGrid  ... OptM3 with GC (2021)
Angular Grid (max. ang.)         AngularGrid ... 4 (Lebedev-302)
Angular grid pruning method      GridPruning ... 4 (adaptive)
Weight generation scheme         WeightScheme... mBecke (2022)
Basis function cutoff            BFCut       ... 1.0000e-10
Integration weight cutoff        WCut        ... 1.0000e-14
Partially contracted basis set               ... off
Rotationally invariant grid construction     ... off
Angular grids for H and He will be reduced by one unit
Diffuse basis detected: some atoms will have their outermost
                        angular grid increased by 1.

Total number of grid points                  ...    99798
Total number of batches                      ...     1569
Average number of points per batch           ...       63
Average number of grid points per atom       ...     4536

------------------
NL GRID GENERATION
------------------

General Integration Accuracy     IntAcc      ... 4.004
Radial Grid Type                 RadialGrid  ... OptM3 with GC (2021)
Angular Grid (max. ang.)         AngularGrid ... 2 (Lebedev-110)
Angular grid pruning method      GridPruning ... 4 (adaptive)
Weight generation scheme         WeightScheme... mBecke (2022)
Basis function cutoff            BFCut       ... 1.0000e-10
Integration weight cutoff        WCut        ... 1.0000e-14
Partially contracted basis set               ... off
Rotationally invariant grid construction     ... off
Angular grids for H and He will be reduced by one unit
Diffuse basis detected: some atoms will have their outermost
                        angular grid increased by 1.

Total number of grid points                  ...    31533
Total number of batches                      ...      504
Average number of points per batch           ...       62
Average number of grid points per atom       ...     1433

--------------------
COSX GRID GENERATION
--------------------

GRIDX 1
-------
General Integration Accuracy     IntAcc      ... 3.816
Radial Grid Type                 RadialGrid  ... OptM3 with GC (2021)
Angular Grid (max. ang.)         AngularGrid ... 1 (Lebedev-50)
Angular grid pruning method      GridPruning ... 4 (adaptive)
Weight generation scheme         WeightScheme... mBecke (2022)
Basis function cutoff            BFCut       ... 1.0000e-10
Integration weight cutoff        WCut        ... 1.0000e-14
Partially contracted basis set               ... on
Rotationally invariant grid construction     ... off
Angular grids for H and He will be reduced by one unit
Diffuse basis detected: some atoms will have their outermost
                        angular grid increased by 1.

Total number of grid points                  ...    12752
Total number of batches                      ...      110
Average number of points per batch           ...      115
Average number of grid points per atom       ...      580
UseSFitting                                  ... on

GRIDX 2
-------
General Integration Accuracy     IntAcc      ... 4.020
Radial Grid Type                 RadialGrid  ... OptM3 with GC (2021)
Angular Grid (max. ang.)         AngularGrid ... 2 (Lebedev-110)
Angular grid pruning method      GridPruning ... 4 (adaptive)
Weight generation scheme         WeightScheme... mBecke (2022)
Basis function cutoff            BFCut       ... 1.0000e-10
Integration weight cutoff        WCut        ... 1.0000e-14
Partially contracted basis set               ... on
Rotationally invariant grid construction     ... off
Angular grids for H and He will be reduced by one unit
Diffuse basis detected: some atoms will have their outermost
                        angular grid increased by 1.

Total number of grid points                  ...    28909
Total number of batches                      ...      238
Average number of points per batch           ...      121
Average number of grid points per atom       ...     1314
UseSFitting                                  ... on

GRIDX 3
-------
General Integration Accuracy     IntAcc      ... 4.338
Radial Grid Type                 RadialGrid  ... OptM3 with GC (2021)
Angular Grid (max. ang.)         AngularGrid ... 3 (Lebedev-194)
Angular grid pruning method      GridPruning ... 4 (adaptive)
Weight generation scheme         WeightScheme... mBecke (2022)
Basis function cutoff            BFCut       ... 1.0000e-10
Integration weight cutoff        WCut        ... 1.0000e-14
Partially contracted basis set               ... on
Rotationally invariant grid construction     ... off
Angular grids for H and He will be reduced by one unit
Diffuse basis detected: some atoms will have their outermost
                        angular grid increased by 1.

Total number of grid points                  ...    62340
Total number of batches                      ...      499
Average number of points per batch           ...      124
Average number of grid points per atom       ...     2834
UseSFitting                                  ... on
Initializing property integral containers    ... done (  0.0 sec)

SHARK setup successfully completed in   2.1 seconds

Maximum memory used throughout the entire STARTUP-calculation: 76.8 MB


           ************************************************************
           *        Program running with 64 parallel MPI-processes    *
           *              working on a common directory               *
           ************************************************************
-------------------------------------------------------------------------------
                                 ORCA GUESS
                   Start orbitals & Density for SCF / CASSCF
-------------------------------------------------------------------------------

------------
SCF SETTINGS
------------
Hamiltonian:
 Density Functional     Method          .... DFT(GTOs)
  Functional kind                       .... Exchange-Correlation
  Functional name                       .... wB97M-V exchange-correlation functional
  Functional family                     .... Hybrid MGGA
  Functional refs                              
    [ 0] N. Mardirossian and M. Head-Gordon.,  J. Chem. Phys. 144, 214110 (2016), doi: 10.1063/1.4952647
  Fraction of HF Exchange (short range) .... 0.1500
  Fraction of HF Exchange (long range)  .... 1.0000
  Range separation parameter mu         .... 0.3000
  Functional external parameters        .... 17
    Parameter  0 _cx00      =  8.500000e-01 : u^00 coefficient for exchange
    Parameter  1 _cx01      =  1.007000e+00 : u^01 coefficient for exchange
    Parameter  2 _cx10      =  2.590000e-01 : u^10 coefficient for exchange
    Parameter  3 _css00     =  4.430000e-01 : u^00 coefficient for same-spin correlation
    Parameter  4 _css04     = -1.437000e+00 : u^04 coefficient for same-spin correlation
    Parameter  5 _css10     = -4.535000e+00 : u^10 coefficient for same-spin correlation
    Parameter  6 _css20     = -3.390000e+00 : u^20 coefficient for same-spin correlation
    Parameter  7 _css43     =  4.278000e+00 : u^43 coefficient for same-spin correlation
    Parameter  8 _cos00     =  1.000000e+00 : u^00 coefficient for opposite-spin correlation
    Parameter  9 _cos10     =  1.358000e+00 : u^10 coefficient for opposite-spin correlation
    Parameter 10 _cos20     =  2.924000e+00 : u^20 coefficient for opposite-spin correlation
    Parameter 11 _cos21     = -8.812000e+00 : u^21 coefficient for opposite-spin correlation
    Parameter 12 _cos60     = -1.390000e+00 : u^60 coefficient for opposite-spin correlation
    Parameter 13 _cos61     =  9.142000e+00 : u^61 coefficient for opposite-spin correlation
    Parameter 14 _alpha     =  1.000000e+00 : fraction of HF exchange
    Parameter 15 _beta      = -8.500000e-01 : fraction of short-range exchange
    Parameter 16 _omega     =  3.000000e-01 : range-separation constant
 Long-range corrected/Screened/Range-Separated Hybrid DFT is turned on
   Amount of maximum screened exact exchange              ....  0.850000
   Range separation parameter mu (erf(mu*r12)/r12)        ....  0.300000
   NL short-range parameter             ....  6.000000
   NL long-range parameter              ....  0.010000
 RI-approximation to the Coulomb term is turned on
   Number of AuxJ basis functions       .... 622
   RIJ-COSX (HFX calculated with COS-X)).... on


General Settings:
 Integral files         IntName         .... 02_Compound_1
 Hartree-Fock type      HFTyp           .... RHF
 Total Charge           Charge          ....    0
 Multiplicity           Mult            ....    1
 Number of Electrons    NEL             ....   72
 Basis Dimension        Dim             ....  930
 Nuclear Repulsion      ENuc            ....    535.1425658751 Eh

Convergence Acceleration:
 AO-DIIS                CNVDIIS         .... on
   Start iteration      DIISMaxIt       ....    12
   Startup error        DIISStart       ....  0.200000
   # of expansion vecs  DIISMaxEq       ....     5
   Bias factor          DIISBfac        ....   1.050
   Max. coefficient     DIISMaxC        ....  10.000
 MO-DIIS                CNVKDIIS        .... off
 Trust-Rad. Augm. Hess. CNVTRAH         .... off
 SOSCF                  CNVSOSCF        .... on
   Start iteration      SOSCFMaxIt      ....   150
   Startup grad/error   SOSCFStart      ....  0.003300
   Hessian update       SOSCFHessUp     .... L-BFGS
 Level Shifting         CNVShift        .... on
   Level shift para.    LevelShift      ....    0.2500
   Turn off err/grad.   ShiftErr        ....    0.0010
 Zerner damping         CNVZerner       .... off
 Static damping         CNVDamp         .... on
   Fraction old density DampFac         ....    0.7000
   Max. Damping (<1)    DampMax         ....    0.9800
   Min. Damping (>=0)   DampMin         ....    0.0000
   Turn off err/grad.   DampErr         ....    0.1000

SCF Procedure:
 Maximum # iterations   MaxIter         ....   125
 SCF integral mode      SCFMode         .... Direct
   Integral package                     .... SHARK and LIBINT hybrid scheme
 Reset frequency        DirectResetFreq ....    20
 Integral Threshold     Thresh          ....  1.000e-10 Eh
 Primitive CutOff       TCut            ....  1.000e-11 Eh

Convergence Tolerance:
 Convergence Check Mode ConvCheckMode   .... Total+1el-Energy
 Convergence forced     ConvForced      .... 0
 Energy Change          TolE            ....  1.000e-06 Eh
 1-El. energy change                    ....  1.000e-03 Eh
 Orbital Gradient       TolG            ....  5.000e-05
 Orbital Rotation angle TolX            ....  5.000e-05
 DIIS Error             TolErr          ....  1.000e-06

------------------------------
INITIAL GUESS: MODEL POTENTIAL
------------------------------
Loading Hartree-Fock densities                     ... done
Calculating cut-offs                               ... done
Initializing the effective Hamiltonian             ... done
Setting up the integral package (SHARK)            ... done
Starting the Coulomb interaction                   ... done (   0.0 sec)
Making the grid                                    ... done (   0.1 sec)
Mapping shells                                     ... done
Starting the XC term evaluation                    ... done (   0.0 sec)
  promolecular density results
     # of electrons  =     71.990361457
     EX              =    -54.706990152
     EC              =     -2.404488289
     EX+EC           =    -57.111478441
Transforming the Hamiltonian                       ... done (   0.1 sec)
Diagonalizing the Hamiltonian                      ... done (   0.1 sec)
Back transforming the eigenvectors                 ... done (   0.0 sec)
Now organizing SCF variables                       ... done
                      ------------------
                      INITIAL GUESS DONE (   0.5 sec)
                      ------------------
             **** ENERGY FILE WAS UPDATED (02_Compound_1.en.tmp) ****
Finished Guess after   1.0 sec
Maximum memory used throughout the entire GUESS-calculation: 73.7 MB


           ************************************************************
           *        Program running with 64 parallel MPI-processes    *
           *              working on a common directory               *
           ************************************************************

-------------------------------------------------------------------------------------------
                                      ORCA LEAN-SCF
                              memory conserving SCF solver
-------------------------------------------------------------------------------------------

----------------------------------------D-I-I-S--------------------------------------------
Iteration    Energy (Eh)           Delta-E    RMSDP     MaxDP     DIISErr   Damp  Time(sec)
-------------------------------------------------------------------------------------------
               ***  Starting incremental Fock matrix formation  ***
    1    -387.9409192105123338     0.00e+00  3.35e-04  2.49e-02  1.59e-01  0.700   3.8
    2    -388.0556109121105237    -1.15e-01  2.91e-04  2.61e-02  9.00e-02  0.700   2.9
                               ***Turning on AO-DIIS***
    3    -388.1142406679139185    -5.86e-02  2.28e-04  2.35e-02  6.17e-02  0.700   2.5
    4    -388.1495835556188467    -3.53e-02  5.79e-04  5.84e-02  4.38e-02  0.000   2.5
                              *** Initializing SOSCF ***
---------------------------------------S-O-S-C-F--------------------------------------
Iteration    Energy (Eh)           Delta-E    RMSDP     MaxDP     MaxGrad    Time(sec)
--------------------------------------------------------------------------------------
    5    -388.2264194460690874    -7.68e-02  5.77e-05  3.39e-03  3.16e-03     2.9
               *** Restarting incremental Fock matrix formation ***
    6    -388.2265668487935955    -1.47e-04  1.68e-04  7.68e-03  3.41e-04     3.4
    7    -388.2265910190495788    -2.42e-05  5.56e-05  2.39e-03  1.47e-04     3.0
    8    -388.2265940970956990    -3.08e-06  3.74e-05  1.76e-03  9.43e-05     2.9
    9    -388.2265951175071450    -1.02e-06  5.74e-06  2.56e-04  3.41e-05     3.0
   10    -388.2265951810276761    -6.35e-08  2.29e-06  9.46e-05  1.83e-05     2.7
                 **** Energy Check signals convergence ****

               *****************************************************
               *                     SUCCESS                       *
               *           SCF CONVERGED AFTER  10 CYCLES          *
               *****************************************************

Recomputing exchange energy using gridx3       ... done (    3.362 sec)
Old exchange energy                            :    -17.956788542 Eh
New exchange energy                            :    -17.956800852 Eh
Exchange energy change after final integration :     -0.000012310 Eh
Total energy after final integration           :   -388.226607491 Eh
             **** ENERGY FILE WAS UPDATED (02_Compound_1.en.tmp) ****

----------------
TOTAL SCF ENERGY
----------------

Total Energy       :       -388.22660749122048 Eh          -10564.18306 eV

Components:
Nuclear Repulsion  :        535.14256587507464 Eh           14561.96953 eV
Electronic Energy  :       -923.63117188963326 Eh          -25133.28194 eV
One Electron Energy:      -1583.85090296632075 Eh          -43098.77417 eV
Two Electron Energy:        660.21973107668748 Eh           17965.49223 eV

Virial components:
Potential Energy   :       -774.96051507584912 Eh          -21087.74770 eV
Kinetic Energy     :        386.73390758462864 Eh           10523.56463 eV
Virial Ratio       :          2.00385975958486

DFT components:
N(Alpha)           :       36.000104093414 electrons
N(Beta)            :       36.000104093414 electrons
N(Total)           :       72.000208186827 electrons
NL Energy, E(C,NL) :        0.262010833531 Eh       
E(XC)              :      -40.758847209463 Eh       

---------------
SCF CONVERGENCE
---------------

  Last Energy change         ...    6.3521e-08  Tolerance :   1.0000e-06
  Last MAX-Density change    ...    9.4556e-05  Tolerance :   1.0000e-05
  Last RMS-Density change    ...    2.2948e-06  Tolerance :   1.0000e-06
  Last DIIS Error            ...    3.1559e-03  Tolerance :   1.0000e-06
  Last Orbital Gradient      ...    1.8299e-05  Tolerance :   5.0000e-05
  Last Orbital Rotation      ...    1.9585e-05  Tolerance :   5.0000e-05


----------------
ORBITAL ENERGIES
----------------

  NO   OCC          E(Eh)            E(eV) 
   0   2.0000     -10.346977      -281.5556 
   1   2.0000     -10.346323      -281.5377 
   2   2.0000     -10.344051      -281.4759 
   3   2.0000     -10.342989      -281.4470 
   4   2.0000     -10.336035      -281.2578 
   5   2.0000     -10.335936      -281.2551 
   6   2.0000     -10.335028      -281.2304 
   7   2.0000     -10.334140      -281.2062 
   8   2.0000     -10.332973      -281.1745 
   9   2.0000     -10.331496      -281.1343 
  10   2.0000      -1.013479       -27.5782 
  11   2.0000      -0.938566       -25.5397 
  12   2.0000      -0.854446       -23.2507 
  13   2.0000      -0.847386       -23.0586 
  14   2.0000      -0.796660       -21.6782 
  15   2.0000      -0.786070       -21.3900 
  16   2.0000      -0.677710       -18.4414 
  17   2.0000      -0.674374       -18.3507 
  18   2.0000      -0.647273       -17.6132 
  19   2.0000      -0.626478       -17.0473 
  20   2.0000      -0.608139       -16.5483 
  21   2.0000      -0.593729       -16.1562 
  22   2.0000      -0.573342       -15.6014 
  23   2.0000      -0.520612       -14.1666 
  24   2.0000      -0.497759       -13.5447 
  25   2.0000      -0.489770       -13.3273 
  26   2.0000      -0.471659       -12.8345 
  27   2.0000      -0.464565       -12.6414 
  28   2.0000      -0.443688       -12.0734 
  29   2.0000      -0.441074       -12.0022 
  30   2.0000      -0.427749       -11.6397 
  31   2.0000      -0.413908       -11.2630 
  32   2.0000      -0.410737       -11.1767 
  33   2.0000      -0.400706       -10.9038 
  34   2.0000      -0.332931        -9.0595 
  35   2.0000      -0.330694        -8.9987 
  36   0.0000       0.062334         1.6962 
  37   0.0000       0.076539         2.0827 
  38   0.0000       0.083084         2.2608 
  39   0.0000       0.088859         2.4180 
  40   0.0000       0.090002         2.4491 
  41   0.0000       0.095221         2.5911 
  42   0.0000       0.106558         2.8996 
  43   0.0000       0.108643         2.9563 
  44   0.0000       0.112180         3.0526 
  45   0.0000       0.118189         3.2161 
  46   0.0000       0.131255         3.5716 
*Only the first 10 virtual orbitals were printed.

                    ********************************
                    * MULLIKEN POPULATION ANALYSIS *
                    ********************************

-----------------------
MULLIKEN ATOMIC CHARGES
-----------------------
   0 C :   -0.091448
   1 C :   -0.097915
   2 C :   -0.272849
   3 C :   -0.070559
   4 C :   -0.122323
   5 C :   -0.270464
   6 C :   -0.135193
   7 C :   -0.112715
   8 C :   -0.173580
   9 C :   -0.132199
  10 H :    0.126567
  11 H :    0.118386
  12 H :    0.173247
  13 H :    0.110502
  14 H :    0.124912
  15 H :    0.174711
  16 H :    0.118157
  17 H :    0.121707
  18 H :    0.112800
  19 H :    0.073279
  20 H :    0.114067
  21 H :    0.110908
Sum of atomic charges:    0.0000000

--------------------------------
MULLIKEN REDUCED ORBITAL CHARGES
--------------------------------
  0 C s       :     3.173131  s :     3.173131
      pz      :     0.916225  p :     2.802853
      px      :     0.960729
      py      :     0.925899
      dz2     :     0.017380  d :     0.101050
      dxz     :     0.006906
      dyz     :     0.047330
      dx2y2   :     0.010116
      dxy     :     0.019318
      f0      :     0.003375  f :     0.013155
      f+1     :     0.001240
      f-1     :     0.001925
      f+2     :     0.003061
      f-2     :     0.000334
      f+3     :     0.002711
      f-3     :     0.000510
      g0      :     0.000185  g :     0.001259
      g+1     :     0.000080
      g-1     :     0.000351
      g+2     :     0.000186
      g-2     :     0.000097
      g+3     :     0.000012
      g-3     :     0.000090
      g+4     :     0.000061
      g-4     :     0.000197

  1 C s       :     3.165532  s :     3.165532
      pz      :     0.903498  p :     2.822753
      px      :     0.982732
      py      :     0.936523
      dz2     :     0.016788  d :     0.095634
      dxz     :     0.006634
      dyz     :     0.045247
      dx2y2   :     0.008275
      dxy     :     0.018691
      f0      :     0.003304  f :     0.012748
      f+1     :     0.001231
      f-1     :     0.001780
      f+2     :     0.002962
      f-2     :     0.000377
      f+3     :     0.002634
      f-3     :     0.000460
      g0      :     0.000170  g :     0.001247
      g+1     :     0.000076
      g-1     :     0.000352
      g+2     :     0.000190
      g-2     :     0.000105
      g+3     :     0.000012
      g-3     :     0.000085
      g+4     :     0.000061
      g-4     :     0.000195

  2 C s       :     3.183532  s :     3.183532
      pz      :     0.917623  p :     2.937375
      px      :     0.938831
      py      :     1.080922
      dz2     :     0.032081  d :     0.134090
      dxz     :     0.021455
      dyz     :     0.022194
      dx2y2   :     0.030488
      dxy     :     0.027873
      f0      :     0.002169  f :     0.016450
      f+1     :     0.002561
      f-1     :     0.002665
      f+2     :     0.001565
      f-2     :     0.001433
      f+3     :     0.002676
      f-3     :     0.003380
      g0      :     0.000214  g :     0.001403
      g+1     :     0.000164
      g-1     :     0.000200
      g+2     :     0.000092
      g-2     :     0.000104
      g+3     :     0.000160
      g-3     :     0.000120
      g+4     :     0.000159
      g-4     :     0.000189

  3 C s       :     3.173787  s :     3.173787
      pz      :     0.983801  p :     2.775941
      px      :     0.885697
      py      :     0.906442
      dz2     :     0.026698  d :     0.104126
      dxz     :     0.017799
      dyz     :     0.014778
      dx2y2   :     0.026273
      dxy     :     0.018579
      f0      :     0.001069  f :     0.015352
      f+1     :     0.003136
      f-1     :     0.001164
      f+2     :     0.002641
      f-2     :     0.001366
      f+3     :     0.003435
      f-3     :     0.002541
      g0      :     0.000117  g :     0.001353
      g+1     :     0.000134
      g-1     :     0.000125
      g+2     :     0.000174
      g-2     :     0.000057
      g+3     :     0.000138
      g-3     :     0.000199
      g+4     :     0.000196
      g-4     :     0.000211

  4 C s       :     3.176777  s :     3.176777
      pz      :     0.976330  p :     2.797517
      px      :     0.894897
      py      :     0.926291
      dz2     :     0.036280  d :     0.131191
      dxz     :     0.020522
      dyz     :     0.018099
      dx2y2   :     0.031513
      dxy     :     0.024776
      f0      :     0.001127  f :     0.015447
      f+1     :     0.003578
      f-1     :     0.000877
      f+2     :     0.002683
      f-2     :     0.001313
      f+3     :     0.003524
      f-3     :     0.002345
      g0      :     0.000128  g :     0.001391
      g+1     :     0.000152
      g-1     :     0.000128
      g+2     :     0.000185
      g-2     :     0.000042
      g+3     :     0.000144
      g-3     :     0.000199
      g+4     :     0.000205
      g-4     :     0.000209

  5 C s       :     3.174373  s :     3.174373
      pz      :     0.933363  p :     2.944517
      px      :     0.948525
      py      :     1.062629
      dz2     :     0.033363  d :     0.133862
      dxz     :     0.023039
      dyz     :     0.021432
      dx2y2   :     0.029619
      dxy     :     0.026408
      f0      :     0.002172  f :     0.016320
      f+1     :     0.002533
      f-1     :     0.002783
      f+2     :     0.001419
      f-2     :     0.001426
      f+3     :     0.002505
      f-3     :     0.003482
      g0      :     0.000224  g :     0.001392
      g+1     :     0.000169
      g-1     :     0.000200
      g+2     :     0.000086
      g-2     :     0.000098
      g+3     :     0.000171
      g-3     :     0.000096
      g+4     :     0.000157
      g-4     :     0.000192

  6 C s       :     3.199824  s :     3.199824
      pz      :     0.935133  p :     2.808563
      px      :     0.939529
      py      :     0.933901
      dz2     :     0.015670  d :     0.112930
      dxz     :     0.018737
      dyz     :     0.014165
      dx2y2   :     0.043100
      dxy     :     0.021258
      f0      :     0.000750  f :     0.012648
      f+1     :     0.001996
      f-1     :     0.001062
      f+2     :     0.001823
      f-2     :     0.001698
      f+3     :     0.002071
      f-3     :     0.003249
      g0      :     0.000095  g :     0.001228
      g+1     :     0.000057
      g-1     :     0.000042
      g+2     :     0.000097
      g-2     :     0.000145
      g+3     :     0.000187
      g-3     :     0.000150
      g+4     :     0.000244
      g-4     :     0.000210

  7 C s       :     3.191434  s :     3.191434
      pz      :     0.938107  p :     2.796971
      px      :     0.949681
      py      :     0.909184
      dz2     :     0.009063  d :     0.110740
      dxz     :     0.015500
      dyz     :     0.023540
      dx2y2   :     0.042362
      dxy     :     0.020275
      f0      :     0.000770  f :     0.012359
      f+1     :     0.001182
      f-1     :     0.001550
      f+2     :     0.001831
      f-2     :     0.002099
      f+3     :     0.001380
      f-3     :     0.003547
      g0      :     0.000105  g :     0.001210
      g+1     :     0.000033
      g-1     :     0.000081
      g+2     :     0.000062
      g-2     :     0.000124
      g+3     :     0.000226
      g-3     :     0.000119
      g+4     :     0.000220
      g-4     :     0.000241

  8 C s       :     3.159064  s :     3.159064
      pz      :     0.973029  p :     2.893026
      px      :     0.962864
      py      :     0.957133
      dz2     :     0.013170  d :     0.109728
      dxz     :     0.021377
      dyz     :     0.032307
      dx2y2   :     0.015923
      dxy     :     0.026951
      f0      :     0.000815  f :     0.010678
      f+1     :     0.001386
      f-1     :     0.000891
      f+2     :     0.002072
      f-2     :     0.001821
      f+3     :     0.001905
      f-3     :     0.001788
      g0      :     0.000078  g :     0.001085
      g+1     :     0.000085
      g-1     :     0.000097
      g+2     :     0.000117
      g-2     :     0.000095
      g+3     :     0.000189
      g-3     :     0.000150
      g+4     :     0.000130
      g-4     :     0.000144

  9 C s       :     3.147368  s :     3.147368
      pz      :     1.006560  p :     2.881376
      px      :     1.004497
      py      :     0.870318
      dz2     :     0.024894  d :     0.090430
      dxz     :     0.008918
      dyz     :     0.014635
      dx2y2   :     0.023481
      dxy     :     0.018502
      f0      :     0.002092  f :     0.011863
      f+1     :     0.001376
      f-1     :     0.002031
      f+2     :     0.000775
      f-2     :     0.001407
      f+3     :     0.001590
      f-3     :     0.002592
      g0      :     0.000198  g :     0.001163
      g+1     :     0.000117
      g-1     :     0.000115
      g+2     :     0.000019
      g-2     :     0.000113
      g+3     :     0.000194
      g-3     :     0.000080
      g+4     :     0.000181
      g-4     :     0.000146

 10 H s       :     0.844570  s :     0.844570
      pz      :     0.006361  p :     0.025723
      px      :     0.011407
      py      :     0.007955
      dz2     :     0.000955  d :     0.002872
      dxz     :     0.000597
      dyz     :     0.000337
      dx2y2   :     0.000385
      dxy     :     0.000598
      f0      :     0.000069  f :     0.000267
      f+1     :     0.000035
      f-1     :     0.000034
      f+2     :     0.000022
      f-2     :     0.000071
      f+3     :     0.000022
      f-3     :     0.000013

 11 H s       :     0.851874  s :     0.851874
      pz      :     0.006628  p :     0.026544
      px      :     0.011553
      py      :     0.008363
      dz2     :     0.000965  d :     0.002924
      dxz     :     0.000596
      dyz     :     0.000445
      dx2y2   :     0.000378
      dxy     :     0.000540
      f0      :     0.000074  f :     0.000271
      f+1     :     0.000040
      f-1     :     0.000034
      f+2     :     0.000027
      f-2     :     0.000066
      f+3     :     0.000018
      f-3     :     0.000013

 12 H s       :     0.799550  s :     0.799550
      pz      :     0.010992  p :     0.023703
      px      :     0.010413
      py      :     0.002298
      dz2     :     0.000252  d :     0.003239
      dxz     :     0.000127
      dyz     :     0.001292
      dx2y2   :     0.000469
      dxy     :     0.001098
      f0      :     0.000032  f :     0.000261
      f+1     :     0.000011
      f-1     :     0.000035
      f+2     :     0.000046
      f-2     :     0.000017
      f+3     :     0.000054
      f-3     :     0.000067

 13 H s       :     0.854699  s :     0.854699
      pz      :     0.004201  p :     0.029760
      px      :     0.013621
      py      :     0.011939
      dz2     :     0.001039  d :     0.004696
      dxz     :     0.002034
      dyz     :     0.000993
      dx2y2   :     0.000407
      dxy     :     0.000223
      f0      :     0.000090  f :     0.000343
      f+1     :     0.000123
      f-1     :     0.000035
      f+2     :     0.000060
      f-2     :     0.000027
      f+3     :     0.000002
      f-3     :     0.000007

 14 H s       :     0.843328  s :     0.843328
      pz      :     0.004016  p :     0.027015
      px      :     0.012192
      py      :     0.010807
      dz2     :     0.000985  d :     0.004408
      dxz     :     0.001874
      dyz     :     0.000945
      dx2y2   :     0.000397
      dxy     :     0.000208
      f0      :     0.000087  f :     0.000335
      f+1     :     0.000118
      f-1     :     0.000038
      f+2     :     0.000059
      f-2     :     0.000027
      f+3     :     0.000001
      f-3     :     0.000007

 15 H s       :     0.797717  s :     0.797717
      pz      :     0.010773  p :     0.024040
      px      :     0.010516
      py      :     0.002751
      dz2     :     0.000284  d :     0.003269
      dxz     :     0.000163
      dyz     :     0.001220
      dx2y2   :     0.000588
      dxy     :     0.001013
      f0      :     0.000028  f :     0.000263
      f+1     :     0.000012
      f-1     :     0.000040
      f+2     :     0.000037
      f-2     :     0.000022
      f+3     :     0.000042
      f-3     :     0.000080

 16 H s       :     0.855021  s :     0.855021
      pz      :     0.010678  p :     0.023661
      px      :     0.008337
      py      :     0.004647
      dz2     :     0.000122  d :     0.002889
      dxz     :     0.000125
      dyz     :     0.001174
      dx2y2   :     0.000502
      dxy     :     0.000966
      f0      :     0.000042  f :     0.000273
      f+1     :     0.000009
      f-1     :     0.000018
      f+2     :     0.000064
      f-2     :     0.000021
      f+3     :     0.000071
      f-3     :     0.000046

 17 H s       :     0.850134  s :     0.850134
      pz      :     0.009230  p :     0.024834
      px      :     0.007030
      py      :     0.008574
      dz2     :     0.000805  d :     0.003051
      dxz     :     0.000426
      dyz     :     0.000421
      dx2y2   :     0.000443
      dxy     :     0.000956
      f0      :     0.000009  f :     0.000274
      f+1     :     0.000117
      f-1     :     0.000002
      f+2     :     0.000010
      f-2     :     0.000059
      f+3     :     0.000028
      f-3     :     0.000048

 18 H s       :     0.856520  s :     0.856520
      pz      :     0.008851  p :     0.026427
      px      :     0.008363
      py      :     0.009213
      dz2     :     0.000977  d :     0.003906
      dxz     :     0.000557
      dyz     :     0.000518
      dx2y2   :     0.001236
      dxy     :     0.000619
      f0      :     0.000020  f :     0.000346
      f+1     :     0.000084
      f-1     :     0.000038
      f+2     :     0.000075
      f-2     :     0.000023
      f+3     :     0.000052
      f-3     :     0.000054

 19 H s       :     0.891476  s :     0.891476
      pz      :     0.010455  p :     0.030606
      px      :     0.011499
      py      :     0.008651
      dz2     :     0.001220  d :     0.004282
      dxz     :     0.001151
      dyz     :     0.000663
      dx2y2   :     0.000627
      dxy     :     0.000621
      f0      :     0.000074  f :     0.000357
      f+1     :     0.000059
      f-1     :     0.000048
      f+2     :     0.000073
      f-2     :     0.000066
      f+3     :     0.000020
      f-3     :     0.000017

 20 H s       :     0.853438  s :     0.853438
      pz      :     0.010208  p :     0.028483
      px      :     0.007873
      py      :     0.010402
      dz2     :     0.000595  d :     0.003689
      dxz     :     0.001228
      dyz     :     0.000076
      dx2y2   :     0.000274
      dxy     :     0.001516
      f0      :     0.000012  f :     0.000323
      f+1     :     0.000108
      f-1     :     0.000005
      f+2     :     0.000042
      f-2     :     0.000015
      f+3     :     0.000025
      f-3     :     0.000116

 21 H s       :     0.858208  s :     0.858208
      pz      :     0.006207  p :     0.026947
      px      :     0.009957
      py      :     0.010784
      dz2     :     0.000358  d :     0.003607
      dxz     :     0.001520
      dyz     :     0.001578
      dx2y2   :     0.000075
      dxy     :     0.000075
      f0      :     0.000034  f :     0.000330
      f+1     :     0.000150
      f-1     :     0.000131
      f+2     :     0.000005
      f-2     :     0.000008
      f+3     :     0.000001
      f-3     :     0.000001



                     *******************************
                     * LOEWDIN POPULATION ANALYSIS *
                     *******************************

----------------------
LOEWDIN ATOMIC CHARGES
----------------------
   0 C :    0.109039
   1 C :    0.104215
   2 C :   -0.005549
   3 C :    0.039153
   4 C :    0.005456
   5 C :    0.001167
   6 C :    0.082623
   7 C :    0.085728
   8 C :    0.119445
   9 C :    0.149669
  10 H :   -0.075634
  11 H :   -0.078362
  12 H :   -0.055808
  13 H :   -0.046330
  14 H :   -0.042743
  15 H :   -0.057001
  16 H :   -0.071043
  17 H :   -0.074374
  18 H :   -0.051352
  19 H :   -0.045902
  20 H :   -0.047347
  21 H :   -0.045049

-------------------------------
LOEWDIN REDUCED ORBITAL CHARGES
-------------------------------
  0 C s       :     2.586440  s :     2.586440
      pz      :     0.908896  p :     2.677501
      px      :     0.756774
      py      :     1.011830
      dz2     :     0.103607  d :     0.498094
      dxz     :     0.061546
      dyz     :     0.197299
      dx2y2   :     0.071519
      dxy     :     0.064123
      f0      :     0.027929  f :     0.117255
      f+1     :     0.021249
      f-1     :     0.017552
      f+2     :     0.023986
      f-2     :     0.003951
      f+3     :     0.013060
      f-3     :     0.009528
      g0      :     0.001586  g :     0.011671
      g+1     :     0.001119
      g-1     :     0.002273
      g+2     :     0.001404
      g-2     :     0.000369
      g+3     :     0.000104
      g-3     :     0.001658
      g+4     :     0.001234
      g-4     :     0.001924

  1 C s       :     2.585660  s :     2.585660
      pz      :     0.909058  p :     2.686741
      px      :     0.764822
      py      :     1.012862
      dz2     :     0.103594  d :     0.494857
      dxz     :     0.061356
      dyz     :     0.195299
      dx2y2   :     0.071176
      dxy     :     0.063433
      f0      :     0.028112  f :     0.116884
      f+1     :     0.021296
      f-1     :     0.016623
      f+2     :     0.024662
      f-2     :     0.004060
      f+3     :     0.012806
      f-3     :     0.009326
      g0      :     0.001568  g :     0.011643
      g+1     :     0.001088
      g-1     :     0.002250
      g+2     :     0.001420
      g-2     :     0.000410
      g+3     :     0.000130
      g-3     :     0.001651
      g+4     :     0.001242
      g-4     :     0.001883

  2 C s       :     2.530590  s :     2.530590
      pz      :     0.883750  p :     2.657397
      px      :     0.859660
      py      :     0.913987
      dz2     :     0.160891  d :     0.647983
      dxz     :     0.127938
      dyz     :     0.098776
      dx2y2   :     0.154604
      dxy     :     0.105773
      f0      :     0.017716  f :     0.160059
      f+1     :     0.031689
      f-1     :     0.026661
      f+2     :     0.019110
      f-2     :     0.022428
      f+3     :     0.019744
      f-3     :     0.022710
      g0      :     0.001486  g :     0.009521
      g+1     :     0.000862
      g-1     :     0.000897
      g+2     :     0.001118
      g-2     :     0.001465
      g+3     :     0.000887
      g-3     :     0.000958
      g+4     :     0.000798
      g-4     :     0.001050

  3 C s       :     2.529106  s :     2.529106
      pz      :     0.915492  p :     2.645504
      px      :     0.867624
      py      :     0.862388
      dz2     :     0.131991  d :     0.621637
      dxz     :     0.108656
      dyz     :     0.100273
      dx2y2   :     0.156036
      dxy     :     0.124682
      f0      :     0.013511  f :     0.156043
      f+1     :     0.026717
      f-1     :     0.014272
      f+2     :     0.024181
      f-2     :     0.016261
      f+3     :     0.035176
      f-3     :     0.025926
      g0      :     0.000649  g :     0.008557
      g+1     :     0.000515
      g-1     :     0.000895
      g+2     :     0.001016
      g-2     :     0.000633
      g+3     :     0.001066
      g-3     :     0.001054
      g+4     :     0.001092
      g-4     :     0.001639

  4 C s       :     2.528805  s :     2.528805
      pz      :     0.916172  p :     2.657231
      px      :     0.878913
      py      :     0.862146
      dz2     :     0.138500  d :     0.643183
      dxz     :     0.113967
      dyz     :     0.101969
      dx2y2   :     0.162069
      dxy     :     0.126678
      f0      :     0.014001  f :     0.156224
      f+1     :     0.028714
      f-1     :     0.010949
      f+2     :     0.026180
      f-2     :     0.015637
      f+3     :     0.036279
      f-3     :     0.024464
      g0      :     0.000615  g :     0.009101
      g+1     :     0.000605
      g-1     :     0.000932
      g+2     :     0.001149
      g-2     :     0.000469
      g+3     :     0.001282
      g-3     :     0.001156
      g+4     :     0.001238
      g-4     :     0.001655

  5 C s       :     2.531942  s :     2.531942
      pz      :     0.885841  p :     2.655091
      px      :     0.857032
      py      :     0.912218
      dz2     :     0.160365  d :     0.643317
      dxz     :     0.124393
      dyz     :     0.101272
      dx2y2   :     0.146769
      dxy     :     0.110519
      f0      :     0.017419  f :     0.159017
      f+1     :     0.030993
      f-1     :     0.028264
      f+2     :     0.018952
      f-2     :     0.020833
      f+3     :     0.018110
      f-3     :     0.024445
      g0      :     0.001470  g :     0.009466
      g+1     :     0.000866
      g-1     :     0.000983
      g+2     :     0.001192
      g-2     :     0.001325
      g+3     :     0.000753
      g-3     :     0.000988
      g+4     :     0.000842
      g-4     :     0.001046

  6 C s       :     2.590656  s :     2.590656
      pz      :     0.816324  p :     2.695438
      px      :     0.892628
      py      :     0.986486
      dz2     :     0.079582  d :     0.505236
      dxz     :     0.081007
      dyz     :     0.064481
      dx2y2   :     0.165967
      dxy     :     0.114200
      f0      :     0.006820  f :     0.114324
      f+1     :     0.013412
      f-1     :     0.012812
      f+2     :     0.012386
      f-2     :     0.018786
      f+3     :     0.021229
      f-3     :     0.028878
      g0      :     0.001247  g :     0.011723
      g+1     :     0.000877
      g-1     :     0.000995
      g+2     :     0.000728
      g-2     :     0.001166
      g+3     :     0.001640
      g-3     :     0.001466
      g+4     :     0.001836
      g-4     :     0.001769

  7 C s       :     2.596336  s :     2.596336
      pz      :     0.821237  p :     2.687133
      px      :     0.904233
      py      :     0.961664
      dz2     :     0.037843  d :     0.506521
      dxz     :     0.072577
      dyz     :     0.114743
      dx2y2   :     0.155991
      dxy     :     0.125367
      f0      :     0.008643  f :     0.112716
      f+1     :     0.002923
      f-1     :     0.016385
      f+2     :     0.012704
      f-2     :     0.021300
      f+3     :     0.015980
      f-3     :     0.034781
      g0      :     0.001146  g :     0.011566
      g+1     :     0.000505
      g-1     :     0.001124
      g+2     :     0.000340
      g-2     :     0.001414
      g+3     :     0.001822
      g-3     :     0.001742
      g+4     :     0.001749
      g-4     :     0.001725

  8 C s       :     2.535356  s :     2.535356
      pz      :     0.916087  p :     2.704747
      px      :     0.888342
      py      :     0.900318
      dz2     :     0.066028  d :     0.517346
      dxz     :     0.098360
      dyz     :     0.132549
      dx2y2   :     0.098650
      dxy     :     0.121759
      f0      :     0.010887  f :     0.116433
      f+1     :     0.016595
      f-1     :     0.014239
      f+2     :     0.013517
      f-2     :     0.016775
      f+3     :     0.019658
      f-3     :     0.024761
      g0      :     0.000674  g :     0.006672
      g+1     :     0.000543
      g-1     :     0.000437
      g+2     :     0.000834
      g-2     :     0.000407
      g+3     :     0.000805
      g-3     :     0.000814
      g+4     :     0.001567
      g-4     :     0.000591

  9 C s       :     2.530447  s :     2.530447
      pz      :     0.917274  p :     2.654878
      px      :     0.902611
      py      :     0.834992
      dz2     :     0.168447  d :     0.539470
      dxz     :     0.059943
      dyz     :     0.074945
      dx2y2   :     0.137471
      dxy     :     0.098665
      f0      :     0.011038  f :     0.118552
      f+1     :     0.013278
      f-1     :     0.019590
      f+2     :     0.012987
      f-2     :     0.019774
      f+3     :     0.014698
      f-3     :     0.027187
      g0      :     0.000904  g :     0.006985
      g+1     :     0.000284
      g-1     :     0.000207
      g+2     :     0.000130
      g-2     :     0.001649
      g+3     :     0.000770
      g-3     :     0.001097
      g+4     :     0.000945
      g-4     :     0.000999

 10 H s       :     0.810829  s :     0.810829
      pz      :     0.074633  p :     0.191252
      px      :     0.055085
      py      :     0.061534
      dz2     :     0.020278  d :     0.063899
      dxz     :     0.011461
      dyz     :     0.014566
      dx2y2   :     0.008031
      dxy     :     0.009563
      f0      :     0.002292  f :     0.009656
      f+1     :     0.000727
      f-1     :     0.002333
      f+2     :     0.001597
      f-2     :     0.001765
      f+3     :     0.000495
      f-3     :     0.000446

 11 H s       :     0.811532  s :     0.811532
      pz      :     0.075977  p :     0.193088
      px      :     0.056928
      py      :     0.060183
      dz2     :     0.020420  d :     0.064075
      dxz     :     0.012233
      dyz     :     0.014842
      dx2y2   :     0.007647
      dxy     :     0.008932
      f0      :     0.002435  f :     0.009667
      f+1     :     0.000859
      f-1     :     0.002234
      f+2     :     0.001592
      f-2     :     0.001719
      f+3     :     0.000422
      f-3     :     0.000405

 12 H s       :     0.791587  s :     0.791587
      pz      :     0.050416  p :     0.188075
      px      :     0.053795
      py      :     0.083864
      dz2     :     0.006744  d :     0.066526
      dxz     :     0.001762
      dyz     :     0.020813
      dx2y2   :     0.016416
      dxy     :     0.020790
      f0      :     0.001024  f :     0.009620
      f+1     :     0.000310
      f-1     :     0.001461
      f+2     :     0.001440
      f-2     :     0.000592
      f+3     :     0.002302
      f-3     :     0.002492

 13 H s       :     0.774156  s :     0.774156
      pz      :     0.086520  p :     0.193289
      px      :     0.050071
      py      :     0.056698
      dz2     :     0.020611  d :     0.069094
      dxz     :     0.022951
      dyz     :     0.018055
      dx2y2   :     0.005398
      dxy     :     0.002080
      f0      :     0.002819  f :     0.009791
      f+1     :     0.002680
      f-1     :     0.002129
      f+2     :     0.001272
      f-2     :     0.000741
      f+3     :     0.000031
      f-3     :     0.000119

 14 H s       :     0.773418  s :     0.773418
      pz      :     0.086281  p :     0.191545
      px      :     0.050912
      py      :     0.054353
      dz2     :     0.020078  d :     0.068190
      dxz     :     0.023232
      dyz     :     0.017787
      dx2y2   :     0.005148
      dxy     :     0.001944
      f0      :     0.002757  f :     0.009590
      f+1     :     0.002674
      f-1     :     0.002109
      f+2     :     0.001210
      f-2     :     0.000707
      f+3     :     0.000027
      f-3     :     0.000107

 15 H s       :     0.792504  s :     0.792504
      pz      :     0.050608  p :     0.188409
      px      :     0.055358
      py      :     0.082444
      dz2     :     0.007253  d :     0.066458
      dxz     :     0.002511
      dyz     :     0.019759
      dx2y2   :     0.017368
      dxy     :     0.019566
      f0      :     0.000968  f :     0.009630
      f+1     :     0.000359
      f-1     :     0.001525
      f+2     :     0.001236
      f-2     :     0.000811
      f+3     :     0.002066
      f-3     :     0.002665

 16 H s       :     0.807520  s :     0.807520
      pz      :     0.053200  p :     0.190120
      px      :     0.050750
      py      :     0.086170
      dz2     :     0.005075  d :     0.063832
      dxz     :     0.002058
      dyz     :     0.020141
      dx2y2   :     0.015804
      dxy     :     0.020754
      f0      :     0.001087  f :     0.009572
      f+1     :     0.000208
      f-1     :     0.001178
      f+2     :     0.001554
      f-2     :     0.000630
      f+3     :     0.002584
      f-3     :     0.002331

 17 H s       :     0.811513  s :     0.811513
      pz      :     0.064099  p :     0.189967
      px      :     0.079771
      py      :     0.046097
      dz2     :     0.012819  d :     0.063393
      dxz     :     0.014869
      dyz     :     0.007222
      dx2y2   :     0.011507
      dxy     :     0.016976
      f0      :     0.000618  f :     0.009501
      f+1     :     0.002441
      f-1     :     0.000056
      f+2     :     0.001590
      f-2     :     0.001960
      f+3     :     0.001149
      f-3     :     0.001686

 18 H s       :     0.782713  s :     0.782713
      pz      :     0.064568  p :     0.191897
      px      :     0.064848
      py      :     0.062481
      dz2     :     0.015483  d :     0.067335
      dxz     :     0.012486
      dyz     :     0.011320
      dx2y2   :     0.016362
      dxy     :     0.011685
      f0      :     0.000743  f :     0.009407
      f+1     :     0.001895
      f-1     :     0.000944
      f+2     :     0.001852
      f-2     :     0.001544
      f+3     :     0.001086
      f-3     :     0.001344

 19 H s       :     0.775001  s :     0.775001
      pz      :     0.077737  p :     0.193316
      px      :     0.051690
      py      :     0.063889
      dz2     :     0.019443  d :     0.068174
      dxz     :     0.017146
      dyz     :     0.014796
      dx2y2   :     0.008404
      dxy     :     0.008383
      f0      :     0.001799  f :     0.009412
      f+1     :     0.001395
      f-1     :     0.002047
      f+2     :     0.001692
      f-2     :     0.001695
      f+3     :     0.000485
      f-3     :     0.000299

 20 H s       :     0.784923  s :     0.784923
      pz      :     0.054514  p :     0.186520
      px      :     0.080056
      py      :     0.051949
      dz2     :     0.012704  d :     0.066448
      dxz     :     0.017788
      dyz     :     0.001435
      dx2y2   :     0.012300
      dxy     :     0.022222
      f0      :     0.000611  f :     0.009457
      f+1     :     0.002620
      f-1     :     0.000091
      f+2     :     0.001580
      f-2     :     0.000544
      f+3     :     0.001426
      f-3     :     0.002584

 21 H s       :     0.783748  s :     0.783748
      pz      :     0.088321  p :     0.185880
      px      :     0.046785
      py      :     0.050774
      dz2     :     0.018085  d :     0.066069
      dxz     :     0.023838
      dyz     :     0.023170
      dx2y2   :     0.000531
      dxy     :     0.000446
      f0      :     0.002753  f :     0.009352
      f+1     :     0.003334
      f-1     :     0.003113
      f+2     :     0.000065
      f-2     :     0.000077
      f+3     :     0.000004
      f-3     :     0.000005



                      *****************************
                      * MAYER POPULATION ANALYSIS *
                      *****************************

  NA   - Mulliken gross atomic population
  ZA   - Total nuclear charge
  QA   - Mulliken gross atomic charge
  VA   - Mayer's total valence
  BVA  - Mayer's bonded valence
  FA   - Mayer's free valence

  ATOM       NA         ZA         QA         VA         BVA        FA
  0 C      6.0914     6.0000    -0.0914     3.9441     3.9441    -0.0000
  1 C      6.0979     6.0000    -0.0979     3.9253     3.9253     0.0000
  2 C      6.2728     6.0000    -0.2728     4.0557     4.0557     0.0000
  3 C      6.0706     6.0000    -0.0706     3.9765     3.9765    -0.0000
[...]
      f+2     :     0.001236
      f-2     :     0.000811
      f+3     :     0.002066
      f-3     :     0.002665

 16 H s       :     0.807520  s :     0.807520
      pz      :     0.053200  p :     0.190120
      px      :     0.050750
      py      :     0.086170
      dz2     :     0.005075  d :     0.063832
      dxz     :     0.002058
      dyz     :     0.020141
      dx2y2   :     0.015804
      dxy     :     0.020754
      f0      :     0.001087  f :     0.009572
      f+1     :     0.000208
      f-1     :     0.001178
      f+2     :     0.001554
      f-2     :     0.000630
      f+3     :     0.002584
      f-3     :     0.002331

 17 H s       :     0.811513  s :     0.811513
      pz      :     0.064099  p :     0.189967
      px      :     0.079771
      py      :     0.046097
      dz2     :     0.012819  d :     0.063393
      dxz     :     0.014869
      dyz     :     0.007222
      dx2y2   :     0.011507
      dxy     :     0.016976
      f0      :     0.000618  f :     0.009501
      f+1     :     0.002441
      f-1     :     0.000056
      f+2     :     0.001590
      f-2     :     0.001960
      f+3     :     0.001149
      f-3     :     0.001686

 18 H s       :     0.782713  s :     0.782713
      pz      :     0.064568  p :     0.191897
      px      :     0.064848
      py      :     0.062481
      dz2     :     0.015483  d :     0.067335
      dxz     :     0.012486
      dyz     :     0.011320
      dx2y2   :     0.016362
      dxy     :     0.011685
      f0      :     0.000743  f :     0.009407
      f+1     :     0.001895
      f-1     :     0.000944
      f+2     :     0.001852
      f-2     :     0.001544
      f+3     :     0.001086
      f-3     :     0.001344

 19 H s       :     0.775001  s :     0.775001
      pz      :     0.077737  p :     0.193316
      px      :     0.051690
      py      :     0.063889
      dz2     :     0.019443  d :     0.068174
      dxz     :     0.017146
      dyz     :     0.014796
      dx2y2   :     0.008404
      dxy     :     0.008383
      f0      :     0.001799  f :     0.009412
      f+1     :     0.001395
      f-1     :     0.002047
      f+2     :     0.001692
      f-2     :     0.001695
      f+3     :     0.000485
      f-3     :     0.000299

 20 H s       :     0.784923  s :     0.784923
      pz      :     0.054514  p :     0.186520
      px      :     0.080056
      py      :     0.051949
      dz2     :     0.012704  d :     0.066448
      dxz     :     0.017788
      dyz     :     0.001435
      dx2y2   :     0.012300
      dxy     :     0.022222
      f0      :     0.000611  f :     0.009457
      f+1     :     0.002620
      f-1     :     0.000091
      f+2     :     0.001580
      f-2     :     0.000544
      f+3     :     0.001426
      f-3     :     0.002584

 21 H s       :     0.783748  s :     0.783748
      pz      :     0.088321  p :     0.185880
      px      :     0.046785
      py      :     0.050774
      dz2     :     0.018085  d :     0.066069
      dxz     :     0.023838
      dyz     :     0.023170
      dx2y2   :     0.000531
      dxy     :     0.000446
      f0      :     0.002753  f :     0.009352
      f+1     :     0.003334
      f-1     :     0.003113
      f+2     :     0.000065
      f-2     :     0.000077
      f+3     :     0.000004
      f-3     :     0.000005



                      *****************************
                      * MAYER POPULATION ANALYSIS *
                      *****************************

  NA   - Mulliken gross atomic population
  ZA   - Total nuclear charge
  QA   - Mulliken gross atomic charge
  VA   - Mayer's total valence
  BVA  - Mayer's bonded valence
  FA   - Mayer's free valence

  ATOM       NA         ZA         QA         VA         BVA        FA
  0 C      6.0914     6.0000    -0.0914     3.9441     3.9441    -0.0000
  1 C      6.0979     6.0000    -0.0979     3.9253     3.9253    -0.0000
  2 C      6.2728     6.0000    -0.2728     4.0557     4.0557     0.0000
  3 C      6.0706     6.0000    -0.0706     3.9765     3.9765    -0.0000
  4 C      6.1223     6.0000    -0.1223     3.9756     3.9756    -0.0000
  5 C      6.2705     6.0000    -0.2705     4.0454     4.0454     0.0000
  6 C      6.1352     6.0000    -0.1352     3.9632     3.9632     0.0000
  7 C      6.1127     6.0000    -0.1127     3.9533     3.9533     0.0000
  8 C      6.1736     6.0000    -0.1736     4.0139     4.0139    -0.0000
  9 C      6.1322     6.0000    -0.1322     3.9055     3.9055     0.0000
 10 H      0.8734     1.0000     0.1266     0.9959     0.9959    -0.0000
 11 H      0.8816     1.0000     0.1184     0.9908     0.9908     0.0000
 12 H      0.8268     1.0000     0.1732     0.9807     0.9807     0.0000
 13 H      0.8895     1.0000     0.1105     0.9958     0.9958    -0.0000
 14 H      0.8751     1.0000     0.1249     0.9878     0.9878    -0.0000
 15 H      0.8253     1.0000     0.1747     0.9790     0.9790     0.0000
 16 H      0.8818     1.0000     0.1182     0.9884     0.9884    -0.0000
 17 H      0.8783     1.0000     0.1217     0.9862     0.9862     0.0000
 18 H      0.8872     1.0000     0.1128     0.9788     0.9788    -0.0000
 19 H      0.9267     1.0000     0.0733     0.9979     0.9979     0.0000
 20 H      0.8859     1.0000     0.1141     1.0051     1.0051     0.0000
 21 H      0.8891     1.0000     0.1109     0.9905     0.9905     0.0000

  Mayer bond orders larger than 0.100000
B(  0-C ,  1-C ) :   1.8896 B(  0-C ,  5-C ) :   1.0482 B(  0-C , 10-H ) :   0.9423 
B(  1-C ,  2-C ) :   1.0290 B(  1-C , 11-H ) :   0.9439 B(  2-C ,  3-C ) :   0.9773 
B(  2-C ,  9-C ) :   0.9885 B(  2-C , 12-H ) :   0.9400 B(  3-C ,  4-C ) :   0.9600 
B(  3-C ,  8-C ) :   1.0235 B(  3-C , 13-H ) :   0.9636 B(  4-C ,  5-C ) :   0.9618 
B(  4-C ,  6-C ) :   1.0520 B(  4-C , 14-H ) :   0.9544 B(  5-C ,  9-C ) :   0.9833 
B(  5-C , 15-H ) :   0.9397 B(  6-C ,  7-C ) :   1.9079 B(  6-C , 16-H ) :   0.9370 
B(  7-C ,  8-C ) :   1.0469 B(  7-C , 17-H ) :   0.9404 B(  8-C , 18-H ) :   0.9536 
B(  8-C , 19-H ) :   0.9593 B(  9-C , 20-H ) :   0.9673 B(  9-C , 21-H ) :   0.9643 


-------
TIMINGS
-------

Total SCF time: 0 days 0 hours 0 min 4 sec 

Total time                  ....       4.366 sec
Sum of individual times     ....       0.806 sec  ( 18.5%)

SCF preparation             ....       0.547 sec  ( 12.5%)
Fock matrix formation       ....       0.000 sec  (  0.0%)
Diagonalization             ....       0.000 sec  (  0.0%)
Density matrix formation    ....       0.000 sec  (  0.0%)
Total Energy calculation    ....       0.000 sec  (  0.0%)
Population analysis         ....       0.246 sec  (  5.6%)
Orbital Transformation      ....       0.000 sec  (  0.0%)
Orbital Orthonormalization  ....       0.000 sec  (  0.0%)
Finished LeanSCF after   4.6 sec

Maximum memory used throughout the entire LEANSCF-calculation: 126.4 MB


           ************************************************************
           *        Program running with 64 parallel MPI-processes    *
           *              working on a common directory               *
           ************************************************************

------------------------------------------------------------------------------
                                ORCA  MP2 
------------------------------------------------------------------------------


-------------
RI-MP2 ENERGY
-------------
Dimension of the orbital basis            ...  930
Dimension of the AuxC basis               ... 2082
Memory devoted to MP2                     ... 5000 MB   
Data format for matrix containers         ... DOUBLE
Compression type for matrix containers    ... UNCOMPRESSED
Overall scaling of the MP2 energy         ...   3.410e-01

-----------------------
SHARK RI TRANSFORMATION
-----------------------

Number of basis functions                ...    930
Number of aux functions                  ...   2082
Number of operators                      ...      1
Generation of IJK                        ... NO
Generation of IAK                        ... YES
Generation of ABK                        ... NO
Orbital Range Operator  0:    0-  35 to   36- 929

Aux basis identifier                     ...   AUXC
Contraction scheme used                  ... SEGMENTED
Do orthogonalization                     ... YES
All operator combinations                ... NO
Transpose (ia|K)                         ... NO
Integral generator used                  ... LIBINT
Starting integral generation + trafo... 
Half trafo (segmented) done. Total time =  0.7 sec. integrals=  0.4 sec trafo=  0.3 sec
Integral generation and half transformation done (  0.7 sec)

Reading or making V^(-1/2)          ... done (  0.1 sec)
Sorting IAK integrals               ... done (  0.7 sec)

SHARK RI integral transformation done. Total time =  1.5 sec.

Opening buffers                              ... done

Starting loop over batches of integrals:

Operator 0  - window                       ... (  0- 35)x( 36-929)
Operator 0  - Memory available             ...  5000 MB
Operator 0  - Memory needed per MO         ...  14.2 MB
Operator 0  - Number of orbitals per batch ... 1
Operator 0  - Number of batches            ... 1

OPERATOR  0   PASS   0:  MOs     0 ...    0 +    1 ...    1 +    2 ...    2 +    3 ...    3
                            +    4 ...    4 +    5 ...    5 +    6 ...    6 +    7 ...    7
                            +    8 ...    8 +    9 ...    9 +   10 ...   10 +   11 ...   11
                            +   12 ...   12 +   13 ...   13 +   14 ...   14 +   15 ...   15
                            +   16 ...   16 +   17 ...   17 +   18 ...   18 +   19 ...   19
                            +   20 ...   20 +   21 ...   21 +   22 ...   22 +   23 ...   23
                            +   24 ...   24 +   25 ...   25 +   26 ...   26 +   27 ...   27
                            +   28 ...   28 +   29 ...   29 +   30 ...   30 +   31 ...   31
                            +   32 ...   32 +   33 ...   33 +   34 ...   34 +   35 ...   35
  Reading integrals       ... ok
Time spent in pair loops =     2.116 sec

-----------------------------------------------
 RI-MP2 CORRELATION ENERGY:     -0.797620047 Eh
-----------------------------------------------


-------
TIMINGS
-------

Total time                :    4.265 sec
Integral trafo            :    1.615 sec ( 37.9%)
I/O of integrals          :    0.007 sec (  0.2%)
K(i,j) operators          :    0.046 sec (  1.1%)
T(i,j) pair energies      :    0.007 sec (  0.2%)
V**(-1/2)                 :    0.534 sec ( 12.5%)


---------------------------------------
MP2 TOTAL ENERGY:     -388.612084246 Eh
---------------------------------------

Maximum memory used throughout the entire MP2-calculation: 142.3 MB

-------------------------   --------------------
FINAL SINGLE POINT ENERGY      -388.612084245544
-------------------------   --------------------



           ************************************************************
           *        Program running with 64 parallel MPI-processes    *
           *              working on a common directory               *
           ************************************************************

------------------------------------------------------------------------------
                              ORCA PROPERTY CALCULATIONS
------------------------------------------------------------------------------

GBWName                                 ... 02_Compound_2.gbw
Number of atoms                         ...     22
Number of basis functions               ...    930
Max core memory                         ...   5000 MB

Electric properties:
Dipole moment                           ... YES
Quadrupole moment                       ...  NO
Static polarizability (Dipole/Dipole)   ...  NO
Static polarizability (Dipole/Quad.)    ...  NO
Static polarizability (Quad./Quad.)     ...  NO
Static polarizability (Velocity)        ...  NO

Atomic electric properties:
Dipole moment                           ...  NO
Quadrupole moment                       ...  NO
Static polarizability                   ...  NO

Choice of electric origin               ... Center of mass
Position of electric origin             ...     0.000072     0.015874     0.013817

General magnetic properties:
Magnetizability                         ...  NO

EPR properties:
g-Tensor (aka g-matrix)                 ...  NO
Zero-Field splitting spin-orbit         ...  NO
Zero-field splitting spin-spin          ...  NO
Hyperfine couplings                     ...  NO (   0 nuclei)
Quadrupole couplings                    ...  NO (   0 nuclei)
Contact density                         ...  NO (   0 nuclei)

NMR properties:
Chemical shifts                         ...  NO (   0 nuclei)
Spin-rotation constants                 ...  NO (   0 nuclei)
Spin-spin couplings                     ...  NO (   0 nuclei,    0 pairs)

Choice of magnetic origin               ... GIAO
Position of magnetic origin             ...     0.000000     0.000000     0.000000

Properties with geometric perturbations:
SCF Hessian                             ...  NO
IR spectrum                             ...  NO
VCD spectrum                            ...  NO
X-ray spectroscopy properties:
SCF XES/XAS/RIXS spectra                ...  NO


-------------
DIPOLE MOMENT
-------------

Method             : SCF
Type of density    : Electron Density
Multiplicity       :   1
Irrep              :   0
Energy             :  -387.8144641987186674 Eh
Relativity type    : 
Basis              : AO
                                X                 Y                 Z
Electronic contribution:     -0.058150373       1.116184250       0.903082713
Nuclear contribution   :      0.030175198      -1.166268818      -1.009849556
                        -----------------------------------------
Total Dipole Moment    :     -0.027975175      -0.050084568      -0.106766842
                        -----------------------------------------
Magnitude (a.u.)       :      0.121203272
Magnitude (Debye)      :      0.308074233



--------------------
Rotational spectrum 
--------------------
 
Rotational constants in cm-1:             0.082429             0.048926             0.045006 
Rotational constants in MHz :          2471.167915          1466.751467          1349.239259 

Dipole components along the rotational axes: 
x,y,z [a.u.] :     0.029552    -0.050566    -0.106113 
x,y,z [Debye]:     0.075114    -0.128528    -0.269719 

 

Dipole moment calculation done in   0.0 sec 

Maximum memory used throughout the entire PROP-calculation: 79.9 MB

Timings for individual modules:

Sum of individual times          ...       14.052 sec (=   0.234 min)
Startup calculation              ...        2.565 sec (=   0.043 min)  18.3 %
SCF iterations                   ...        5.950 sec (=   0.099 min)  42.3 %
Property calculations            ...        0.592 sec (=   0.010 min)   4.2 %
MP2 module                       ...        4.946 sec (=   0.082 min)  35.2 %
================================================================================

----- Orbital basis set information -----
Your calculation utilizes the basis: def2-SVP
   F. Weigend and R. Ahlrichs, Phys. Chem. Chem. Phys. 7, 3297 (2005).


--------------------------------
SUGGESTED CITATIONS FOR THIS RUN
--------------------------------

Below you find a list of papers that are relevant to this ORCA run
We neither can nor want to force you to cite these papers, but we appreciate if you do
You receive ORCA, which is the product of decades of hard work by many enthusiastic individuals, for free
The only thing we kindly ask in return is that you cite our papers,
We deeply appreciate it, if you show your appreciation for ORCA by not just citing the generic ORCA reference.

Please note that relegating all ORCA citations to the supporting information does *not* help us.
SI sections are not indexed - citations you put there will not count into any citation statistics
But we need these citations in order to attract the funding resources that allow us to do what we are doing

Therefore, if you are a happy ORCA user, please consider citing a few of the papers listed below in the main body of your paper

In addition to the list printed below, the program has created the file 02.bibtex that contains the list in bibtex format
You can import this file easily into all common literature databanks and citation aid programs


List of essential papers. We consider these as the minimum necessary citations

  1. Neese,F.
     Software update: the ORCA program system, version 5.0
     WIRES Comput. Molec. Sci., 2022 12(1)e1606
     doi.org/10.1002/wcms.1606

List of papers to cite with high priority. The work reported in these papers was absolutely
necessary for this run to complete.
Our perspective: the developers of density functionals and basis sets usually get cited in chemistry papers
Good! But without the algorithms to do something with them, the functionals or basis sets would not do anything.
Hence, in our opinion, the algorithm design and method developments papers are equally worthy of getting cited

  1. Neese,F.
     An improvement of the resolution of the identity approximation for the formation of the Coulomb matrix
     J. Comp. Chem., 2003 24(14)1740-1747
     doi.org/10.1002/jcc.10318
  2. Neese,F.; Wennmohs,F.; Hansen,A.; Becker,U.
     Efficient, approximate and parallel Hartree-Fock and hybrid DFT calculations. A 'chain-of-spheres' algorithm for the Hartree-Fock exchange
     Chem. Phys., 2009 356(1-3)98-109
     doi.org/10.1016/j.chemphys.2008.10.036
  3. Kossmann,S.; Neese,F.
     Efficient Structure Optimization with Second-Order Many-Body Perturbation Theory: The RIJCOSX-MP2 Method
     J. Theo. Comp. Chem., 2010 6 2325-2338
     doi.org/10.1021/ct100199k
  4. Helmich-Paris,B.; de Souza,B.; Neese,F.; Izsák,R.
     An improved chain of spheres for exchange algorithm
     J. Chem. Phys., 2021 155 104109
     doi.org/doi: 10.1063/5.0058766.
  5. Neese,F.
     The SHARK Integral Generation and Digestion System
     J. Comp. Chem., 2022  1-16
     doi.org/10.1002/jcc.26942
  6. Lehtola,S.; Steigemann,C.; Oliveira,M.; Marques,M.
     Recent developments in Libxc - A comprehensive library of functionals for density functional theory
     Software X, 2018 7 
     doi.org/10.1016/j.softx.2017.11.002

List of suggested additional citations. These are papers that are important in the 'surrounding' of 
of this run, or papers that preceded the highly important papers. If you like your results we are grateful for a citation.

  1. Izsak,R.; Neese,F.
     An overlap fitted chain of spheres exchange method
     J. Chem. Phys., 2011 135 144105
     doi.org/10.1063/1.3646921
  2. Izsak,R.; Hansen,A.; Neese,F.
     The resolution of identity and chain of spheres approximations for the LPNO-CCSD singles Fock term
     Molec. Phys., 2012 110 2413-2417
     doi.org/10.1080/00268976.2012.687466
  3. Neese,F.
     The ORCA program system
     WIRES Comput. Molec. Sci., 2012 2(1)73-78
     doi.org/10.1002/wcms.81
  4. Izsak,R.; Neese,F.; Klopper,W.
     Robust fitting techniques in the chain of spheres approximation to the Fock exchange: The role of the complementary space
     J. Chem. Phys., 2013 139 
     doi.org/10.1063/1.4819264
  5. Neese,F.
     Software update: the ORCA program system, version 4.0
     WIRES Comput. Molec. Sci., 2018 8(1)1-6
     doi.org/10.1002/wcms.1327
  6. Neese,F.; Wennmohs,F.; Becker,U.; Riplinger,C.
     The ORCA quantum chemistry program package
     J. Chem. Phys., 2020 152 Art. No. L224108
     doi.org/10.1063/5.0004608

List of optional additional citations

  1. Neese,F.
     Approximate second-order SCF convergence for spin unrestricted wavefunctions
     Chem. Phys. Lett., 2000 325(1-3)93-98
     doi.org/10.1016/s0009-2614(00)00662-x
                             ****ORCA TERMINATED NORMALLY****
TOTAL RUN TIME: 0 days 0 hours 0 minutes 54 seconds 59 msec
