 Entering Gaussian System, Link 0=g16
 Initial command:
 /home/hongchang/data/software/Gaussian/g16/l1.exe "/home/hongchang/data/software/Gaussian/g16/scratch/Gau-1350521.inp" -scrdir="/home/hongchang/data/software/Gaussian/g16/scratch/"
 Entering Link 1 = /home/hongchang/data/software/Gaussian/g16/l1.exe PID=   1350522.
  
 Copyright (c) 1988,1990,1992,1993,1995,1998,2003,2009,2016,
            Gaussian, Inc.  All Rights Reserved.
  
 This is part of the Gaussian(R) 16 program.  It is based on
 the Gaussian(R) 09 system (copyright 2009, Gaussian, Inc.),
 the Gaussian(R) 03 system (copyright 2003, Gaussian, Inc.),
 the Gaussian(R) 98 system (copyright 1998, Gaussian, Inc.),
 the Gaussian(R) 94 system (copyright 1995, Gaussian, Inc.),
 the Gaussian 92(TM) system (copyright 1992, Gaussian, Inc.),
 the Gaussian 90(TM) system (copyright 1990, Gaussian, Inc.),
 the Gaussian 88(TM) system (copyright 1988, Gaussian, Inc.),
 the Gaussian 86(TM) system (copyright 1986, Carnegie Mellon
 University), and the Gaussian 82(TM) system (copyright 1983,
 Carnegie Mellon University). Gaussian is a federally registered
 trademark of Gaussian, Inc.
  
 This software contains proprietary and confidential information,
 including trade secrets, belonging to Gaussian, Inc.
  
 This software is provided under written license and may be
 used, copied, transmitted, or stored only in accord with that
 written license.
  
 The following legend is applicable only to US Government
 contracts under FAR:
  
                    RESTRICTED RIGHTS LEGEND
  
 Use, reproduction and disclosure by the US Government is
 subject to restrictions as set forth in subparagraphs (a)
 and (c) of the Commercial Computer Software - Restricted
 Rights clause in FAR 52.227-19.
  
 Gaussian, Inc.
 340 Quinnipiac St., Bldg. 40, Wallingford CT 06492
  
  
 ---------------------------------------------------------------
 Warning -- This program may not be used in any manner that
 competes with the business of Gaussian, Inc. or will provide
 assistance to any competitor of Gaussian, Inc.  The licensee
 of this program is prohibited from giving any competitor of
 Gaussian, Inc. access to this program.  By using this program,
 the user acknowledges that Gaussian, Inc. is engaged in the
 business of creating and licensing software in the field of
 computational chemistry and represents and warrants to the
 licensee that it is not a competitor of Gaussian, Inc. and that
 it will not use this program in any manner prohibited above.
 ---------------------------------------------------------------
  

 Cite this work as:
 Gaussian 16, Revision A.03,
 M. J. Frisch, G. W. Trucks, H. B. Schlegel, G. E. Scuseria, 
 M. A. Robb, J. R. Cheeseman, G. Scalmani, V. Barone, 
 G. A. Petersson, H. Nakatsuji, X. Li, M. Caricato, A. V. Marenich, 
 J. Bloino, B. G. Janesko, R. Gomperts, B. Mennucci, H. P. Hratchian, 
 J. V. Ortiz, A. F. Izmaylov, J. L. Sonnenberg, D. Williams-Young, 
 F. Ding, F. Lipparini, F. Egidi, J. Goings, B. Peng, A. Petrone, 
 T. Henderson, D. Ranasinghe, V. G. Zakrzewski, J. Gao, N. Rega, 
 G. Zheng, W. Liang, M. Hada, M. Ehara, K. Toyota, R. Fukuda, 
 J. Hasegawa, M. Ishida, T. Nakajima, Y. Honda, O. Kitao, H. Nakai, 
 T. Vreven, K. Throssell, J. A. Montgomery, Jr., J. E. Peralta, 
 F. Ogliaro, M. J. Bearpark, J. J. Heyd, E. N. Brothers, K. N. Kudin, 
 V. N. Staroverov, T. A. Keith, R. Kobayashi, J. Normand, 
 K. Raghavachari, A. P. Rendell, J. C. Burant, S. S. Iyengar, 
 J. Tomasi, M. Cossi, J. M. Millam, M. Klene, C. Adamo, R. Cammi, 
 J. W. Ochterski, R. L. Martin, K. Morokuma, O. Farkas, 
 J. B. Foresman, and D. J. Fox, Gaussian, Inc., Wallingford CT, 2016.
 
 ******************************************
 Gaussian 16:  ES64L-G16RevA.03 25-Dec-2016
                28-Jul-2025 
 ******************************************
 %nprocshared=96
 Will use up to   96 processors via shared memory.
 %mem=600GB
 %chk=01_02_path1_3.chk
 -----------------------------------------------------------
 # freq b3lyp/6-311g(d,p) em=gd3bj scrf(solvent=Cis-Decalin)
 -----------------------------------------------------------
 1/10=4,30=1,38=1/1,3;
 2/12=2,17=6,18=5,40=1/2;
 3/5=4,6=6,7=101,11=2,25=1,30=1,70=2201,71=2,72=99,74=-5,124=41,140=1/1,2,3;
 4//1;
 5/5=2,38=5,53=99,98=1/2;
 8/6=4,10=90,11=11/1;
 11/6=1,8=1,9=11,15=111,16=1/1,2,10;
 10/6=1/2;
 6/7=2,8=2,9=2,10=2,28=1/1;
 7/8=1,10=1,25=1/1,2,3,16;
 1/10=4,30=1/3;
 99//99;
 -------------
 01_02_path1_3
 -------------
 Symbolic Z-matrix:
 Charge =  0 Multiplicity = 1
 C                    -1.36189  -1.16361   0.65905 
 C                    -0.73076  -0.09693   1.36513 
 C                    -0.82775   1.06876   0.5912 
 C                     0.82773   1.0687   -0.5913 
 C                     0.73074  -0.09706  -1.36511 
 C                    -1.92436  -0.69241  -0.49057 
 C                     1.36192  -1.16366  -0.65894 
 C                     1.92439  -0.69234   0.49063 
 C                     1.88371   0.81093   0.47018 
 C                    -1.88372   0.81086  -0.47027 
 H                    -1.33161  -2.20175   0.9641 
 H                    -0.24869  -0.18383   2.32713 
 H                    -0.69142   2.05754   1.01248 
 H                     0.69137   2.05744  -1.01268 
 H                     0.24867  -0.18407  -2.3271 
 H                    -2.44983  -1.27652  -1.23318 
 H                     1.33165  -2.20184  -0.96387 
 H                     2.44989  -1.27636   1.23328 
 H                     2.84661   1.19281   0.09694 
 H                     1.70063   1.28565   1.43492 
 H                    -2.84664   1.19274  -0.09707 
 H                    -1.70064   1.28549  -1.43504 
 

 GradGradGradGradGradGradGradGradGradGradGradGradGradGradGradGradGradGrad
 Berny optimization.
 Initialization pass.
 Trust Radius=3.00D-01 FncErr=1.00D-07 GrdErr=1.00D-07 EigMax=2.50D+02 EigMin=1.00D-04
 Number of steps in this run=      2 maximum allowed number of steps=      2.
 GradGradGradGradGradGradGradGradGradGradGradGradGradGradGradGradGradGrad

                          Input orientation:                          
 ---------------------------------------------------------------------
 Center     Atomic      Atomic             Coordinates (Angstroms)
 Number     Number       Type             X           Y           Z
 ---------------------------------------------------------------------
      1          6           0       -1.361894   -1.163605    0.659054
      2          6           0       -0.730756   -0.096926    1.365129
      3          6           0       -0.827754    1.068757    0.591203
      4          6           0        0.827727    1.068704   -0.591303
      5          6           0        0.730737   -0.097061   -1.365109
      6          6           0       -1.924356   -0.692414   -0.490569
      7          6           0        1.361915   -1.163655   -0.658937
      8          6           0        1.924391   -0.692337    0.490625
      9          6           0        1.883706    0.810932    0.470180
     10          6           0       -1.883716    0.810858   -0.470265
     11          1           0       -1.331606   -2.201755    0.964095
     12          1           0       -0.248689   -0.183833    2.327131
     13          1           0       -0.691419    2.057539    1.012478
     14          1           0        0.691373    2.057440   -1.012679
     15          1           0        0.248670   -0.184071   -2.327101
     16          1           0       -2.449828   -1.276520   -1.233175
     17          1           0        1.331645   -2.201837   -0.963874
     18          1           0        2.449889   -1.276356    1.233280
     19          1           0        2.846610    1.192811    0.096937
     20          1           0        1.700628    1.285647    1.434916
     21          1           0       -2.846635    1.192742   -0.097065
     22          1           0       -1.700644    1.285489   -1.435043
 ---------------------------------------------------------------------
                    Distance matrix (angstroms):
                    1          2          3          4          5
     1  C    0.000000
     2  C    1.426423   0.000000
     3  C    2.296377   1.402564   0.000000
     4  C    3.367646   2.759563   2.034438   0.000000
     5  C    3.100622   3.096799   2.759562   1.402566   0.000000
     6  C    1.363825   2.285367   2.339763   3.268890   2.858109
     7  C    3.025927   3.100649   3.367664   2.296379   1.426425
     8  C    3.324174   2.858160   3.268925   2.339766   2.285369
     9  C    3.803734   2.908703   2.726378   1.519304   2.349909
    10  C    2.333702   2.349906   1.519303   2.726363   2.908681
    11  H    1.082461   2.225344   3.330040   4.216383   3.756087
    12  H    2.231963   1.079532   2.217599   3.353323   3.820921
    13  H    3.309111   2.183490   1.083397   2.420271   3.509665
    14  H    4.169620   3.509660   2.420264   1.083397   2.183491
    15  H    3.531363   3.820920   3.353321   2.217599   1.079531
    16  H    2.185608   3.331341   3.385233   4.080985   3.394779
    17  H    3.311642   3.756115   4.216403   3.330042   2.225345
    18  H    3.856441   3.394840   4.081025   3.385235   3.331343
    19  H    4.855943   4.008651   3.709534   2.136578   2.877198
    20  H    3.997479   2.797857   2.674249   2.216886   3.269971
    21  H    2.885922   2.877186   2.136578   3.709527   4.008630
    22  H    3.240070   3.269972   2.216886   2.674239   2.797847
                    6          7          8          9         10
     6  C    0.000000
     7  C    3.324153   0.000000
     8  C    3.971850   1.363823   0.000000
     9  C    4.205285   2.333702   1.503958   0.000000
    10  C    1.503958   3.803738   4.205304   3.883028   0.000000
    11  H    2.178419   3.311637   3.619949   4.433787   3.382019
    12  H    3.317521   3.531388   2.890261   2.997488   3.389417
    13  H    3.367718   4.169640   3.831006   2.911938   2.274712
    14  H    3.830970   3.309111   3.367719   2.274711   2.911917
    15  H    2.890208   2.231966   3.317522   3.389418   2.997465
    16  H    1.081094   3.856407   4.737779   5.102783   2.293395
    17  H    3.619933   1.082462   2.178418   3.382020   4.433794
    18  H    4.737791   2.185606   1.081093   2.293394   5.102809
    19  H    5.163463   2.885931   2.135243   1.101057   4.779497
    20  H    4.556394   3.240066   2.203219   1.090682   4.086889
    21  H    2.135242   4.855945   5.163486   4.779505   1.101057
    22  H    2.203220   3.997489   4.556410   4.086887   1.090682
                   11         12         13         14         15
    11  H    0.000000
    12  H    2.665068   0.000000
    13  H    4.307408   2.635919   0.000000
    14  H    5.112810   4.130539   2.452218   0.000000
    15  H    4.171366   4.680731   4.130541   2.635918   0.000000
    16  H    2.633339   4.326056   4.387586   4.585962   3.109986
    17  H    3.287852   4.171392   5.112831   4.307409   2.665071
    18  H    3.902375   3.110055   4.586003   4.387585   4.326056
    19  H    5.452754   4.055834   3.755479   2.573689   3.810650
    20  H    4.645222   2.599088   2.548757   2.757713   4.291972
    21  H    3.865745   3.810644   2.573697   3.755470   4.055809
    22  H    4.248873   4.291973   2.757708   2.548734   2.599077
                   16         17         18         19         20
    16  H    0.000000
    17  H    3.902342   0.000000
    18  H    5.485492   2.633338   0.000000
    19  H    5.993250   3.865757   2.746898   0.000000
    20  H    5.559649   4.248869   2.676921   1.764109   0.000000
    21  H    2.746899   5.452756   5.993282   5.696549   4.799291
    22  H    2.676923   4.645236   5.559669   4.799278   4.450316
                   21         22
    21  H    0.000000
    22  H    1.764110   0.000000
 Stoichiometry    C10H12
 Framework group  C1[X(C10H12)]
 Deg. of freedom    60
 Full point group                 C1      NOp   1
 Largest Abelian subgroup         C1      NOp   1
 Largest concise Abelian subgroup C1      NOp   1
                         Standard orientation:                         
 ---------------------------------------------------------------------
 Center     Atomic      Atomic             Coordinates (Angstroms)
 Number     Number       Type             X           Y           Z
 ---------------------------------------------------------------------
      1          6           0        1.363835    1.175660    0.655000
      2          6           0        0.734778    0.109005    1.362966
      3          6           0        0.829490   -1.056702    0.588793
      4          6           0       -0.829470   -1.056681   -0.588826
      5          6           0       -0.734759    0.109060   -1.362951
      6          6           0        1.922903    0.704432   -0.496262
      7          6           0       -1.363848    1.175678   -0.654954
      8          6           0       -1.922934    0.704397    0.496276
      9          6           0       -1.882314   -0.798872    0.475758
     10          6           0        1.882319   -0.798840   -0.475792
     11          1           0        1.334450    2.213820    0.960097
     12          1           0        0.255550    0.195943    2.326382
     13          1           0        0.694395   -2.045471    1.010499
     14          1           0       -0.694362   -2.045430   -1.010572
     15          1           0       -0.255530    0.196039   -2.326363
     16          1           0        2.446185    1.288513   -1.240432
     17          1           0       -1.334474    2.213851   -0.960011
     18          1           0       -2.446238    1.288441    1.240459
     19          1           0       -2.846316   -1.180760    0.105367
     20          1           0       -1.696394   -1.273558    1.439964
     21          1           0        2.846333   -1.180715   -0.105421
     22          1           0        1.696401   -1.273500   -1.440011
 ---------------------------------------------------------------------
 Rotational constants (GHZ):           2.3868188           1.3179915           1.2563392
 Standard basis: 6-311G(d,p) (5D, 7F)
 There are   262 symmetry adapted cartesian basis functions of A   symmetry.
 There are   252 symmetry adapted basis functions of A   symmetry.
   252 basis functions,   416 primitive gaussians,   262 cartesian basis functions
    36 alpha electrons       36 beta electrons
       nuclear repulsion energy       520.5687766325 Hartrees.
 NAtoms=   22 NActive=   22 NUniq=   22 SFac= 1.00D+00 NAtFMM=   60 NAOKFM=F Big=F
 Integral buffers will be    131072 words long.
 Raffenetti 2 integral format.
 Two-electron integral symmetry is turned on.
 Nuclear repulsion after empirical dispersion term =      520.5230426264 Hartrees.
 Force inversion solution in PCM.
 ------------------------------------------------------------------------------
 Polarizable Continuum Model (PCM)
 =================================
 Model                : PCM.
 Atomic radii         : UFF (Universal Force Field).
 Polarization charges : Total charges.
 Charge compensation  : None.
 Solution method      : Matrix inversion.
 Cavity type          : Scaled VdW (van der Waals Surface) (Alpha=1.100).
 Cavity algorithm     : GePol (No added spheres)
                        Default sphere list used, NSphG=   22.
                        Lebedev-Laikov grids with approx.  5.0 points / Ang**2.
                        Smoothing algorithm: York/Karplus (Gamma=1.0000).
                        Polarization charges: spherical gaussians, with
                                              point-specific exponents (IZeta= 3).
                        Self-potential: point-specific (ISelfS= 7).
                        Self-field    : sphere-specific E.n sum rule (ISelfD= 2).
 1st derivatives      : Analytical E(r).r(x)/FMM algorithm (CHGder, D1EAlg=3).
                        Cavity 1st derivative terms included.
 2nd derivatives      : Analytical E(r).r(xy)/FMM algorithm (CHGder, D2EAlg=3).
                        Cavity 2nd derivative terms included.
 Solvent              : Cis-Decalin, Eps=   2.213900 Eps(inf)=   2.193361
 ------------------------------------------------------------------------------
 One-electron integrals computed using PRISM.
 NBasis=   252 RedAO= T EigKep=  5.34D-04  NBF=   252
 NBsUse=   252 1.00D-06 EigRej= -1.00D+00 NBFU=   252
 ExpMin= 1.03D-01 ExpMax= 4.56D+03 ExpMxC= 6.82D+02 IAcc=3 IRadAn=         5 AccDes= 0.00D+00
 Harris functional with IExCor=  402 and IRadAn=       5 diagonalized for initial guess.
 HarFok:  IExCor=  402 AccDes= 0.00D+00 IRadAn=         5 IDoV= 1 UseB2=F ITyADJ=14
 ICtDFT=  3500011 ScaDFX=  1.000000  1.000000  1.000000  1.000000
 FoFCou: FMM=F IPFlag=           0 FMFlag=      100000 FMFlg1=           0
         NFxFlg=           0 DoJE=T BraDBF=F KetDBF=T FulRan=T
         wScrn=  0.000000 ICntrl=       500 IOpCl=  0 I1Cent=   200000004 NGrid=           0
         NMat0=    1 NMatS0=      1 NMatT0=    0 NMatD0=    1 NMtDS0=    0 NMtDT0=    0
 Petite list used in FoFCou.
 Requested convergence on RMS density matrix=1.00D-08 within 128 cycles.
 Requested convergence on MAX density matrix=1.00D-06.
 Requested convergence on             energy=1.00D-06.
 No special actions if energy rises.
 Inv3:  Mode=1 IEnd=     7114800.
 Iteration    1 A*A^-1 deviation from unit magnitude is 5.44D-15 for   1529.
 Iteration    1 A*A^-1 deviation from orthogonality  is 2.89D-15 for   1476    671.
 Iteration    1 A^-1*A deviation from unit magnitude is 5.44D-15 for    331.
 Iteration    1 A^-1*A deviation from orthogonality  is 1.94D-15 for   1486    662.
 Error on total polarization charges =  0.00627
 SCF Done:  E(RB3LYP) =  -388.320083232     A.U. after   12 cycles
            NFock= 12  Conv=0.37D-08     -V/T= 2.0046
 DoSCS=F DFT=T ScalE2(SS,OS)=  1.000000  1.000000
 Range of M.O.s used for correlation:     1   252
 NBasis=   252 NAE=    36 NBE=    36 NFC=     0 NFV=     0
 NROrb=    252 NOA=    36 NOB=    36 NVA=   216 NVB=   216
 Symmetrizing basis deriv contribution to polar:
 IMax=3 JMax=2 DiffMx= 0.00D+00
 G2DrvN: will do    23 centers at a time, making    1 passes.
 Calling FoFCou, ICntrl=  3107 FMM=F I1Cent=   0 AccDes= 0.00D+00.
 NEqPCM:  Using equilibrium solvation (IEInf=0, Eps=   2.2139, EpsInf=   2.1934)
 G2PCM: DoFxE=T DoFxN=T DoGrad=T DoDP/DQ/DG/TGxP=FFFF NFrqRd=   0 IEInf=0 SqF1=F DoCFld=F IF1Alg=4.
 End of G2Drv F.D. properties file   721 does not exist.
 End of G2Drv F.D. properties file   722 does not exist.
 End of G2Drv F.D. properties file   788 does not exist.
          IDoAtm=1111111111111111111111
 NEqPCM:  Using equilibrium solvation (IEInf=0, Eps=   2.2139, EpsInf=   2.1934)
          Differentiating once with respect to electric field.
                with respect to dipole field.
          Differentiating once with respect to nuclear coordinates.
 Keep R1 ints in memory in canonical form, NReq=612588626.
          There are    69 degrees of freedom in the 1st order CPHF.  IDoFFX=6 NUNeed=     3.
     66 vectors produced by pass  0 Test12= 1.13D-14 1.45D-09 XBig12= 2.54D+02 1.39D+01.
 AX will form    66 AO Fock derivatives at one time.
     66 vectors produced by pass  1 Test12= 1.13D-14 1.45D-09 XBig12= 3.59D+01 1.14D+00.
     66 vectors produced by pass  2 Test12= 1.13D-14 1.45D-09 XBig12= 3.29D-01 1.11D-01.
     66 vectors produced by pass  3 Test12= 1.13D-14 1.45D-09 XBig12= 9.07D-04 5.63D-03.
     66 vectors produced by pass  4 Test12= 1.13D-14 1.45D-09 XBig12= 1.65D-06 2.23D-04.
     47 vectors produced by pass  5 Test12= 1.13D-14 1.45D-09 XBig12= 1.76D-09 4.80D-06.
      7 vectors produced by pass  6 Test12= 1.13D-14 1.45D-09 XBig12= 1.75D-12 2.09D-07.
      3 vectors produced by pass  7 Test12= 1.13D-14 1.45D-09 XBig12= 1.70D-15 5.05D-09.
 InvSVY:  IOpt=1 It=  1 EMax= 1.42D-14
 Solved reduced A of dimension   387 with    69 vectors.
 Isotropic polarizability for W=    0.000000      131.26 Bohr**3.
 End of Minotr F.D. properties file   721 does not exist.
 End of Minotr F.D. properties file   722 does not exist.
 End of Minotr F.D. properties file   788 does not exist.

 **********************************************************************

            Population analysis using the SCF density.

 **********************************************************************

 Orbital symmetries:
       Occupied  (A) (A) (A) (A) (A) (A) (A) (A) (A) (A) (A) (A)
                 (A) (A) (A) (A) (A) (A) (A) (A) (A) (A) (A) (A)
                 (A) (A) (A) (A) (A) (A) (A) (A) (A) (A) (A) (A)
       Virtual   (A) (A) (A) (A) (A) (A) (A) (A) (A) (A) (A) (A)
                 (A) (A) (A) (A) (A) (A) (A) (A) (A) (A) (A) (A)
                 (A) (A) (A) (A) (A) (A) (A) (A) (A) (A) (A) (A)
                 (A) (A) (A) (A) (A) (A) (A) (A) (A) (A) (A) (A)
                 (A) (A) (A) (A) (A) (A) (A) (A) (A) (A) (A) (A)
                 (A) (A) (A) (A) (A) (A) (A) (A) (A) (A) (A) (A)
                 (A) (A) (A) (A) (A) (A) (A) (A) (A) (A) (A) (A)
                 (A) (A) (A) (A) (A) (A) (A) (A) (A) (A) (A) (A)
                 (A) (A) (A) (A) (A) (A) (A) (A) (A) (A) (A) (A)
                 (A) (A) (A) (A) (A) (A) (A) (A) (A) (A) (A) (A)
                 (A) (A) (A) (A) (A) (A) (A) (A) (A) (A) (A) (A)
                 (A) (A) (A) (A) (A) (A) (A) (A) (A) (A) (A) (A)
                 (A) (A) (A) (A) (A) (A) (A) (A) (A) (A) (A) (A)
                 (A) (A) (A) (A) (A) (A) (A) (A) (A) (A) (A) (A)
                 (A) (A) (A) (A) (A) (A) (A) (A) (A) (A) (A) (A)
                 (A) (A) (A) (A) (A) (A) (A) (A) (A) (A) (A) (A)
                 (A) (A) (A) (A) (A) (A) (A) (A) (A) (A) (A) (A)
                 (A) (A) (A) (A) (A) (A) (A) (A) (A) (A) (A) (A)
 The electronic state is 1-A.
 Alpha  occ. eigenvalues --  -10.17660 -10.17660 -10.16896 -10.16896 -10.16354
 Alpha  occ. eigenvalues --  -10.16354 -10.16057 -10.16056 -10.15893 -10.15892
 Alpha  occ. eigenvalues --   -0.86746  -0.84030  -0.71657  -0.70617  -0.69146
 Alpha  occ. eigenvalues --   -0.68484  -0.55738  -0.55055  -0.53188  -0.51650
 Alpha  occ. eigenvalues --   -0.51571  -0.50141  -0.45114  -0.42168  -0.39350
 Alpha  occ. eigenvalues --   -0.38153  -0.37460  -0.37035  -0.36314  -0.36151
 Alpha  occ. eigenvalues --   -0.35676  -0.34476  -0.31736  -0.26081  -0.25678
 Alpha  occ. eigenvalues --   -0.18474
 Alpha virt. eigenvalues --   -0.03579   0.02259   0.03356   0.04698   0.07371
 Alpha virt. eigenvalues --    0.07809   0.07810   0.09608   0.09768   0.10760
 Alpha virt. eigenvalues --    0.10999   0.12142   0.12761   0.15066   0.15096
 Alpha virt. eigenvalues --    0.17296   0.18685   0.19866   0.21876   0.22978
 Alpha virt. eigenvalues --    0.26788   0.27616   0.30650   0.31239   0.31838
 Alpha virt. eigenvalues --    0.32660   0.35438   0.38235   0.38262   0.38885
 Alpha virt. eigenvalues --    0.39575   0.40558   0.41285   0.42154   0.43315
 Alpha virt. eigenvalues --    0.44623   0.44650   0.45802   0.46478   0.49453
 Alpha virt. eigenvalues --    0.50002   0.52181   0.54975   0.55480   0.56254
 Alpha virt. eigenvalues --    0.56407   0.58817   0.59165   0.59806   0.59848
 Alpha virt. eigenvalues --    0.60417   0.61538   0.61978   0.63618   0.64094
 Alpha virt. eigenvalues --    0.64581   0.65614   0.66297   0.68502   0.70129
 Alpha virt. eigenvalues --    0.70297   0.70992   0.71480   0.74028   0.76136
 Alpha virt. eigenvalues --    0.79166   0.80718   0.83185   0.85906   0.87578
 Alpha virt. eigenvalues --    0.88189   0.91349   0.92989   0.98243   0.98996
 Alpha virt. eigenvalues --    1.04383   1.05265   1.05402   1.09061   1.14326
 Alpha virt. eigenvalues --    1.15060   1.17350   1.18995   1.22045   1.22426
 Alpha virt. eigenvalues --    1.25622   1.29121   1.33673   1.38736   1.41250
 Alpha virt. eigenvalues --    1.46648   1.48056   1.48950   1.49841   1.51719
 Alpha virt. eigenvalues --    1.52094   1.52876   1.54410   1.56032   1.57252
 Alpha virt. eigenvalues --    1.58475   1.59414   1.60236   1.60771   1.61327
 Alpha virt. eigenvalues --    1.63954   1.64393   1.66915   1.67733   1.70948
 Alpha virt. eigenvalues --    1.71712   1.73063   1.74467   1.76616   1.77732
 Alpha virt. eigenvalues --    1.78252   1.82292   1.82388   1.82530   1.84029
 Alpha virt. eigenvalues --    1.84775   1.86575   1.87221   1.87913   1.89085
 Alpha virt. eigenvalues --    1.92165   1.92294   1.94367   1.97818   1.98124
 Alpha virt. eigenvalues --    1.99823   2.00194   2.02679   2.05137   2.08498
 Alpha virt. eigenvalues --    2.13032   2.13162   2.16035   2.17382   2.18298
 Alpha virt. eigenvalues --    2.22590   2.23174   2.26804   2.30962   2.33273
 Alpha virt. eigenvalues --    2.34739   2.36787   2.37114   2.39801   2.41879
 Alpha virt. eigenvalues --    2.44593   2.45701   2.49330   2.50789   2.51939
 Alpha virt. eigenvalues --    2.53353   2.59985   2.60119   2.60555   2.62742
 Alpha virt. eigenvalues --    2.62873   2.67697   2.68784   2.69878   2.70723
 Alpha virt. eigenvalues --    2.71210   2.74352   2.74714   2.77567   2.78705
 Alpha virt. eigenvalues --    2.81260   2.84162   2.87785   2.92111   2.92335
 Alpha virt. eigenvalues --    2.92527   2.93558   2.96158   3.00176   3.05167
 Alpha virt. eigenvalues --    3.08863   3.09389   3.11060   3.18241   3.19654
 Alpha virt. eigenvalues --    3.30347   3.33339   3.36522   3.42980   3.43869
 Alpha virt. eigenvalues --    3.46453   3.47892   3.54636   3.59454   3.77328
 Alpha virt. eigenvalues --    3.78660   4.02919   4.03861   4.06321   4.08900
 Alpha virt. eigenvalues --    4.09238   4.11951   4.16169   4.19192   4.50702
 Alpha virt. eigenvalues --    4.53281  23.63183  23.75163  23.88960  23.89673
 Alpha virt. eigenvalues --   23.90347  23.98394  24.12065  24.12166  24.20282
 Alpha virt. eigenvalues --   24.20585
          Condensed to atoms (all electrons):
               1          2          3          4          5          6
     1  C    4.868800   0.460014  -0.077057  -0.008950   0.005932   0.562513
     2  C    0.460014   5.031354   0.502159  -0.055598  -0.052042  -0.090142
     3  C   -0.077057   0.502159   5.210742   0.105036  -0.055598  -0.092632
     4  C   -0.008950  -0.055598   0.105036   5.210742   0.502160  -0.014959
     5  C    0.005932  -0.052042  -0.055598   0.502160   5.031358   0.038045
     6  C    0.562513  -0.090142  -0.092632  -0.014959   0.038045   5.088813
     7  C   -0.015063   0.005932  -0.008949  -0.077057   0.460010  -0.010588
     8  C   -0.010587   0.038042  -0.014958  -0.092632  -0.090141  -0.003133
     9  C    0.000550  -0.012823  -0.036776   0.375523  -0.094666   0.000911
    10  C   -0.090065  -0.094666   0.375522  -0.036777  -0.012823   0.371307
    11  H    0.421266  -0.044639   0.006584  -0.000176   0.000120  -0.045194
    12  H   -0.037288   0.420318  -0.041904  -0.001559   0.000281   0.006329
    13  H    0.007805  -0.036198   0.408933  -0.018451   0.003457   0.006086
    14  H   -0.000118   0.003457  -0.018451   0.408933  -0.036198  -0.000222
    15  H   -0.000413   0.000281  -0.001559  -0.041904   0.420318   0.002523
    16  H   -0.038076   0.008388   0.005162   0.000288  -0.001573   0.417151
    17  H    0.001974   0.000120  -0.000176   0.006584  -0.044639   0.000650
    18  H    0.000115  -0.001572   0.000288   0.005162   0.008387   0.000035
    19  H   -0.000230   0.003354   0.006454  -0.030434  -0.000779  -0.000229
    20  H    0.000828  -0.003664  -0.003740  -0.042511   0.008100   0.000129
    21  H   -0.002159  -0.000779  -0.030434   0.006454   0.003354  -0.035235
    22  H    0.005571   0.008100  -0.042511  -0.003740  -0.003665  -0.036353
               7          8          9         10         11         12
     1  C   -0.015063  -0.010587   0.000550  -0.090065   0.421266  -0.037288
     2  C    0.005932   0.038042  -0.012823  -0.094666  -0.044639   0.420318
     3  C   -0.008949  -0.014958  -0.036776   0.375522   0.006584  -0.041904
     4  C   -0.077057  -0.092632   0.375523  -0.036777  -0.000176  -0.001559
     5  C    0.460010  -0.090141  -0.094666  -0.012823   0.000120   0.000281
     6  C   -0.010588  -0.003133   0.000911   0.371307  -0.045194   0.006329
     7  C    4.868798   0.562517  -0.090064   0.000550   0.001974  -0.000412
     8  C    0.562517   5.088806   0.371307   0.000911   0.000650   0.002524
     9  C   -0.090064   0.371307   4.890720   0.003830  -0.000081  -0.000022
    10  C    0.000550   0.000911   0.003830   4.890723   0.008735   0.007011
    11  H    0.001974   0.000650  -0.000081   0.008735   0.573261  -0.002853
    12  H   -0.000412   0.002524  -0.000022   0.007011  -0.002853   0.552908
    13  H   -0.000118  -0.000222  -0.002763  -0.030459  -0.000281  -0.004048
    14  H    0.007805   0.006086  -0.030459  -0.002764   0.000031  -0.000063
    15  H   -0.037287   0.006329   0.007011  -0.000022  -0.000046   0.000002
    16  H    0.000115   0.000035  -0.000002  -0.037956  -0.004997  -0.000317
    17  H    0.421266  -0.045194   0.008735  -0.000081   0.000127  -0.000046
    18  H   -0.038076   0.417151  -0.037956  -0.000002   0.000019   0.000274
    19  H   -0.002159  -0.035235   0.385482  -0.000247   0.000001   0.000106
    20  H    0.005571  -0.036353   0.409100   0.000521  -0.000012  -0.000084
    21  H   -0.000230  -0.000229  -0.000247   0.385482  -0.000457  -0.000355
    22  H    0.000828   0.000129   0.000521   0.409101  -0.000264  -0.000285
              13         14         15         16         17         18
     1  C    0.007805  -0.000118  -0.000413  -0.038076   0.001974   0.000115
     2  C   -0.036198   0.003457   0.000281   0.008388   0.000120  -0.001572
     3  C    0.408933  -0.018451  -0.001559   0.005162  -0.000176   0.000288
     4  C   -0.018451   0.408933  -0.041904   0.000288   0.006584   0.005162
     5  C    0.003457  -0.036198   0.420318  -0.001573  -0.044639   0.008387
     6  C    0.006086  -0.000222   0.002523   0.417151   0.000650   0.000035
     7  C   -0.000118   0.007805  -0.037287   0.000115   0.421266  -0.038076
     8  C   -0.000222   0.006086   0.006329   0.000035  -0.045194   0.417151
     9  C   -0.002763  -0.030459   0.007011  -0.000002   0.008735  -0.037956
    10  C   -0.030459  -0.002764  -0.000022  -0.037956  -0.000081  -0.000002
    11  H   -0.000281   0.000031  -0.000046  -0.004997   0.000127   0.000019
    12  H   -0.004048  -0.000063   0.000002  -0.000317  -0.000046   0.000274
    13  H    0.547534  -0.002845  -0.000063  -0.000307   0.000031   0.000020
    14  H   -0.002845   0.547534  -0.004047   0.000020  -0.000281  -0.000307
    15  H   -0.000063  -0.004047   0.552906   0.000274  -0.002853  -0.000317
    16  H   -0.000307   0.000020   0.000274   0.559355   0.000019  -0.000000
    17  H    0.000031  -0.000281  -0.002853   0.000019   0.573261  -0.004997
    18  H    0.000020  -0.000307  -0.000317  -0.000000  -0.004997   0.559355
    19  H   -0.000322  -0.001648  -0.000354   0.000001  -0.000457   0.000337
    20  H    0.002115  -0.000810  -0.000285  -0.000005  -0.000264  -0.001926
    21  H   -0.001647  -0.000322   0.000106   0.000337   0.000001   0.000001
    22  H   -0.000811   0.002115  -0.000084  -0.001926  -0.000012  -0.000005
              19         20         21         22
     1  C   -0.000230   0.000828  -0.002159   0.005571
     2  C    0.003354  -0.003664  -0.000779   0.008100
     3  C    0.006454  -0.003740  -0.030434  -0.042511
     4  C   -0.030434  -0.042511   0.006454  -0.003740
     5  C   -0.000779   0.008100   0.003354  -0.003665
     6  C   -0.000229   0.000129  -0.035235  -0.036353
     7  C   -0.002159   0.005571  -0.000230   0.000828
     8  C   -0.035235  -0.036353  -0.000229   0.000129
     9  C    0.385482   0.409100  -0.000247   0.000521
    10  C   -0.000247   0.000521   0.385482   0.409101
    11  H    0.000001  -0.000012  -0.000457  -0.000264
    12  H    0.000106  -0.000084  -0.000355  -0.000285
    13  H   -0.000322   0.002115  -0.001647  -0.000811
    14  H   -0.001648  -0.000810  -0.000322   0.002115
    15  H   -0.000354  -0.000285   0.000106  -0.000084
    16  H    0.000001  -0.000005   0.000337  -0.001926
    17  H   -0.000457  -0.000264   0.000001  -0.000012
    18  H    0.000337  -0.001926   0.000001  -0.000005
    19  H    0.575686  -0.032072   0.000001  -0.000055
    20  H   -0.032072   0.575987  -0.000055  -0.000017
    21  H    0.000001  -0.000055   0.575686  -0.032072
    22  H   -0.000055  -0.000017  -0.032072   0.575987
 Mulliken charges:
               1
     1  C   -0.055363
     2  C   -0.089396
     3  C   -0.196134
     4  C   -0.196134
     5  C   -0.089399
     6  C   -0.165807
     7  C   -0.055363
     8  C   -0.165805
     9  C   -0.147832
    10  C   -0.147832
    11  H    0.086232
    12  H    0.099483
    13  H    0.122556
    14  H    0.122557
    15  H    0.099484
    16  H    0.094014
    17  H    0.086232
    18  H    0.094014
    19  H    0.132799
    20  H    0.119447
    21  H    0.132799
    22  H    0.119447
 Sum of Mulliken charges =  -0.00000
 Mulliken charges with hydrogens summed into heavy atoms:
               1
     1  C    0.030870
     2  C    0.010087
     3  C   -0.073578
     4  C   -0.073577
     5  C    0.010085
     6  C   -0.071793
     7  C    0.030869
     8  C   -0.071791
     9  C    0.104414
    10  C    0.104414
 APT charges:
               1
     1  C   -0.012834
     2  C   -0.139399
     3  C    0.081738
     4  C    0.081730
     5  C   -0.139392
     6  C   -0.040139
     7  C   -0.012831
     8  C   -0.040147
     9  C    0.009852
    10  C    0.009851
    11  H    0.041154
    12  H    0.049281
    13  H    0.007434
    14  H    0.007434
    15  H    0.049280
    16  H    0.021937
    17  H    0.041153
    18  H    0.021939
    19  H   -0.025595
    20  H    0.006574
    21  H   -0.025595
    22  H    0.006574
 Sum of APT charges =   0.00000
 APT charges with hydrogens summed into heavy atoms:
               1
     1  C    0.028320
     2  C   -0.090118
     3  C    0.089173
     4  C    0.089164
     5  C   -0.090111
     6  C   -0.018203
     7  C    0.028322
     8  C   -0.018207
     9  C   -0.009169
    10  C   -0.009171
 Electronic spatial extent (au):  <R**2>=           1180.1478
 Charge=             -0.0000 electrons
 Dipole moment (field-independent basis, Debye):
    X=              0.0000    Y=             -0.5927    Z=             -0.0000  Tot=              0.5927
 Quadrupole moment (field-independent basis, Debye-Ang):
   XX=            -62.8451   YY=            -56.9266   ZZ=            -59.7683
   XY=              0.0001   XZ=             -4.0791   YZ=              0.0000
 Traceless Quadrupole moment (field-independent basis, Debye-Ang):
   XX=             -2.9984   YY=              2.9200   ZZ=              0.0783
   XY=              0.0001   XZ=             -4.0791   YZ=              0.0000
 Octapole moment (field-independent basis, Debye-Ang**2):
  XXX=             -0.0002  YYY=              1.8288  ZZZ=              0.0000  XYY=             -0.0000
  XXY=             -2.6737  XXZ=             -0.0000  XZZ=             -0.0000  YZZ=              1.2468
  YYZ=             -0.0001  XYZ=             -0.9016
 Hexadecapole moment (field-independent basis, Debye-Ang**3):
 XXXX=           -905.0079 YYYY=           -389.3663 ZZZZ=           -348.8876 XXXY=              0.0001
 XXXZ=            -26.7093 YYYX=             -0.0000 YYYZ=              0.0001 ZZZX=            -18.4667
 ZZZY=              0.0000 XXYY=           -211.5108 XXZZ=           -214.3962 YYZZ=           -123.2978
 XXYZ=              0.0004 YYXZ=             -1.5827 ZZXY=              0.0003
 N-N= 5.205230426264D+02 E-N=-1.941695645591D+03  KE= 3.865260011808D+02
  Exact polarizability: 157.328   0.000 119.148  -4.629  -0.000 117.309
 Approx polarizability: 234.767   0.001 175.564  -2.232  -0.001 194.780
 D2PCM: PCM CHGder 2nd derivatives, FixD1E=F FixD2E=F DoIter=F DoCFld=F I1PDM=0
 Calling FoFJK, ICntrl=    100127 FMM=F ISym2X=0 I1Cent= 0 IOpClX= 0 NMat=1 NMatS=1 NMatT=0.
 Full mass-weighted force constant matrix:
 Low frequencies --- -428.9872  -32.7981  -32.5891   -9.6262   -0.0005   -0.0004
 Low frequencies ---   -0.0002  120.0210  133.3040
 ******    1 imaginary frequencies (negative Signs) ****** 
 Diagonal vibrational polarizability:
        7.9366298       2.2892934       6.4272121
 Harmonic frequencies (cm**-1), IR intensities (KM/Mole), Raman scattering
 activities (A**4/AMU), depolarization ratios for plane and unpolarized
 incident light, reduced masses (AMU), force constants (mDyne/A),
 and normal coordinates:
                      1                      2                      3
                      A                      A                      A
 Frequencies --   -428.9871               119.9933               133.2288
 Red. masses --      9.1950                 4.4144                 3.3105
 Frc consts  --      0.9970                 0.0374                 0.0346
 IR Inten    --      0.5110                 0.7398                 0.0470
  Atom  AN      X      Y      Z        X      Y      Z        X      Y      Z
     1   6     0.02   0.04  -0.06     0.04   0.06   0.01     0.08   0.03  -0.13
     2   6     0.11  -0.06   0.05    -0.18   0.09  -0.10    -0.01   0.14  -0.04
     3   6     0.45  -0.02   0.36    -0.11   0.08  -0.08    -0.06   0.06   0.07
     4   6    -0.45  -0.02  -0.36    -0.11  -0.08  -0.08     0.06   0.06  -0.07
     5   6    -0.11  -0.06  -0.05    -0.18  -0.09  -0.10     0.01   0.14   0.04
     6   6     0.09   0.02   0.04     0.23   0.04   0.13     0.10  -0.12  -0.06
     7   6    -0.02   0.04   0.06     0.04  -0.06   0.01    -0.08   0.03   0.13
     8   6    -0.09   0.02  -0.04     0.23  -0.04   0.13    -0.10  -0.12   0.06
     9   6    -0.05   0.02  -0.04     0.02  -0.04   0.04    -0.00  -0.11  -0.09
    10   6     0.05   0.02   0.04     0.02   0.04   0.04     0.00  -0.11   0.09
    11   1    -0.09   0.04  -0.09     0.08   0.06   0.03     0.14   0.07  -0.24
    12   1    -0.04   0.02  -0.03    -0.20   0.09  -0.11    -0.02   0.26  -0.06
    13   1     0.01  -0.07   0.06    -0.14   0.09  -0.07    -0.14   0.11   0.15
    14   1    -0.01  -0.07  -0.06    -0.14  -0.09  -0.07     0.14   0.11  -0.15
    15   1     0.04   0.02   0.03    -0.20  -0.09  -0.11     0.02   0.26   0.06
    16   1     0.06  -0.00   0.00     0.39   0.01   0.22     0.17  -0.23  -0.09
    17   1     0.09   0.04   0.09     0.08  -0.06   0.03    -0.14   0.07   0.24
    18   1    -0.06  -0.00  -0.00     0.39  -0.01   0.22    -0.17  -0.23   0.09
    19   1    -0.15   0.03   0.20    -0.06   0.12   0.08     0.03  -0.13  -0.16
    20   1     0.14   0.01  -0.08     0.04  -0.14  -0.02    -0.01  -0.19  -0.13
    21   1     0.15   0.03  -0.20    -0.06  -0.12   0.08    -0.03  -0.13   0.16
    22   1    -0.14   0.01   0.08     0.04   0.14  -0.02     0.01  -0.19   0.13
                      4                      5                      6
                      A                      A                      A
 Frequencies --    177.4958               259.2852               312.3931
 Red. masses --      4.0197                 3.3212                 3.6080
 Frc consts  --      0.0746                 0.1316                 0.2075
 IR Inten    --      0.4966                 0.0417                 0.1016
  Atom  AN      X      Y      Z        X      Y      Z        X      Y      Z
     1   6     0.21  -0.03   0.10     0.16   0.06   0.06     0.11  -0.01   0.11
     2   6     0.10  -0.02   0.00     0.08   0.09   0.05     0.06   0.03   0.14
     3   6    -0.00   0.02  -0.08    -0.06   0.09   0.02    -0.06   0.03   0.12
     4   6     0.00   0.02   0.08    -0.06  -0.09   0.02     0.06   0.03  -0.12
     5   6    -0.10  -0.02  -0.00     0.08  -0.09   0.05    -0.06   0.03  -0.14
     6   6     0.22   0.01   0.09    -0.02   0.06  -0.03    -0.13  -0.03   0.00
     7   6    -0.21  -0.03  -0.10     0.16  -0.06   0.06    -0.11  -0.01  -0.11
     8   6    -0.22   0.01  -0.09    -0.02  -0.06  -0.03     0.13  -0.03  -0.00
     9   6    -0.03   0.02   0.06    -0.16  -0.06  -0.09     0.18  -0.02  -0.01
    10   6     0.03   0.02  -0.06    -0.16   0.06  -0.09    -0.18  -0.02   0.01
    11   1     0.33  -0.05   0.20     0.35   0.04   0.14     0.27  -0.02   0.16
    12   1     0.07  -0.05  -0.01     0.18   0.08   0.10     0.19   0.03   0.20
    13   1    -0.01   0.01  -0.11    -0.03   0.10   0.04    -0.14   0.04   0.10
    14   1     0.01   0.01   0.11    -0.03  -0.10   0.04     0.14   0.04  -0.10
    15   1    -0.07  -0.05   0.01     0.18  -0.08   0.10    -0.19   0.03  -0.20
    16   1     0.32   0.02   0.16    -0.03   0.04  -0.05    -0.20  -0.05  -0.06
    17   1    -0.33  -0.05  -0.20     0.35  -0.04   0.14    -0.27  -0.02  -0.16
    18   1    -0.32   0.02  -0.16    -0.03  -0.04  -0.05     0.20  -0.05   0.06
    19   1     0.02  -0.15   0.09    -0.14   0.03  -0.22     0.13  -0.03   0.11
    20   1     0.02   0.14   0.11    -0.30  -0.12  -0.09     0.31  -0.03  -0.05
    21   1    -0.02  -0.15  -0.09    -0.14  -0.03  -0.22    -0.13  -0.03  -0.11
    22   1    -0.02   0.14  -0.11    -0.30   0.12  -0.09    -0.31  -0.03   0.05
                      7                      8                      9
                      A                      A                      A
 Frequencies --    417.2771               445.0897               556.0031
 Red. masses --      1.9811                 1.8255                 2.7502
 Frc consts  --      0.2032                 0.2131                 0.5009
 IR Inten    --      0.1239                 0.5482                 1.6373
  Atom  AN      X      Y      Z        X      Y      Z        X      Y      Z
     1   6    -0.06   0.00  -0.02     0.08  -0.01   0.04    -0.13   0.04  -0.06
     2   6    -0.10   0.01  -0.04     0.01   0.00  -0.02     0.17  -0.03   0.11
     3   6    -0.00   0.01   0.02    -0.08   0.02  -0.07    -0.07   0.02  -0.02
     4   6     0.00   0.01  -0.02    -0.08  -0.02  -0.07     0.07   0.02   0.02
     5   6     0.11   0.01   0.04     0.01  -0.00  -0.02    -0.17  -0.03  -0.11
     6   6     0.06  -0.01   0.05    -0.08   0.02  -0.06     0.08  -0.01   0.07
     7   6     0.06   0.00   0.02     0.08   0.01   0.04     0.13   0.04   0.06
     8   6    -0.06  -0.01  -0.05    -0.08  -0.02  -0.06    -0.08  -0.01  -0.07
     9   6     0.12  -0.01   0.08     0.05  -0.02   0.07     0.02  -0.01  -0.02
    10   6    -0.12  -0.01  -0.08     0.05   0.02   0.07    -0.02  -0.01   0.02
    11   1    -0.08   0.01  -0.04     0.20  -0.03   0.13    -0.36   0.08  -0.21
    12   1    -0.21   0.05  -0.09    -0.03   0.01  -0.04     0.35  -0.06   0.20
    13   1    -0.06   0.00  -0.02    -0.12   0.02  -0.09    -0.02   0.01  -0.01
    14   1     0.06   0.00   0.02    -0.12  -0.02  -0.09     0.02   0.01   0.01
    15   1     0.21   0.05   0.09    -0.03  -0.01  -0.04    -0.35  -0.06  -0.20
    16   1     0.13  -0.02   0.10    -0.07   0.01  -0.06    -0.04  -0.01  -0.01
    17   1     0.08   0.01   0.04     0.20   0.03   0.13     0.36   0.08   0.21
    18   1    -0.13  -0.02  -0.10    -0.07  -0.01  -0.06     0.04  -0.01   0.01
    19   1     0.10  -0.23   0.35     0.01  -0.23   0.39     0.08  -0.20   0.00
    20   1     0.37   0.16   0.12     0.35   0.17   0.11     0.07   0.13   0.04
    21   1    -0.10  -0.23  -0.35     0.01   0.23   0.39    -0.08  -0.20  -0.00
    22   1    -0.37   0.16  -0.12     0.35  -0.17   0.11    -0.07   0.13  -0.04
                     10                     11                     12
                      A                      A                      A
 Frequencies --    590.9997               706.1934               706.9630
 Red. masses --      2.4680                 1.2689                 1.1999
 Frc consts  --      0.5079                 0.3728                 0.3533
 IR Inten    --      3.5710                 1.3214                77.9234
  Atom  AN      X      Y      Z        X      Y      Z        X      Y      Z
     1   6    -0.08   0.04  -0.06     0.05   0.01   0.04    -0.05  -0.02  -0.04
     2   6     0.15  -0.03   0.06    -0.01   0.02   0.00     0.00  -0.01   0.00
     3   6    -0.12   0.03  -0.07     0.00   0.01  -0.01     0.02  -0.01   0.02
     4   6    -0.12  -0.03  -0.07    -0.00   0.01   0.01     0.02   0.01   0.02
     5   6     0.15   0.03   0.06     0.01   0.02  -0.00     0.00   0.01   0.00
     6   6     0.07   0.01   0.04     0.01  -0.02   0.03    -0.02   0.02  -0.04
     7   6    -0.08  -0.04  -0.06    -0.05   0.01  -0.05    -0.05   0.02  -0.04
     8   6     0.07  -0.01   0.04    -0.01  -0.02  -0.03    -0.02  -0.02  -0.04
     9   6    -0.02  -0.01   0.03    -0.06  -0.03   0.01    -0.04  -0.02  -0.00
    10   6    -0.02   0.01   0.03     0.06  -0.03  -0.01    -0.04   0.02  -0.00
    11   1    -0.25   0.06  -0.15    -0.18   0.05  -0.12     0.21  -0.06   0.13
    12   1     0.44  -0.09   0.22    -0.16   0.02  -0.07     0.15  -0.02   0.08
    13   1    -0.10   0.02  -0.08     0.01   0.03   0.03     0.04  -0.03  -0.01
    14   1    -0.10  -0.02  -0.08    -0.01   0.03  -0.03     0.04   0.03  -0.01
    15   1     0.44   0.09   0.22     0.16   0.02   0.07     0.15   0.02   0.08
    16   1    -0.02  -0.00  -0.04    -0.52   0.04  -0.28     0.52  -0.04   0.30
    17   1    -0.25  -0.06  -0.15     0.18   0.05   0.12     0.21   0.06   0.13
    18   1    -0.02   0.00  -0.04     0.52   0.04   0.29     0.52   0.04   0.30
    19   1    -0.12   0.09   0.19    -0.05  -0.16   0.11    -0.01  -0.14   0.05
    20   1     0.11  -0.06  -0.02     0.05   0.09   0.04     0.03   0.09   0.04
    21   1    -0.12  -0.09   0.19     0.05  -0.16  -0.11    -0.01   0.14   0.05
    22   1     0.11   0.06  -0.02    -0.05   0.09  -0.04     0.03  -0.09   0.04
                     13                     14                     15
                      A                      A                      A
 Frequencies --    767.3281               767.6840               800.6633
 Red. masses --      1.3906                 1.3014                 3.2651
 Frc consts  --      0.4824                 0.4519                 1.2332
 IR Inten    --      0.3219                85.4676                 0.0082
  Atom  AN      X      Y      Z        X      Y      Z        X      Y      Z
     1   6     0.01  -0.03  -0.02     0.01  -0.00   0.00     0.05   0.04  -0.03
     2   6     0.07  -0.05   0.04    -0.10   0.01  -0.04    -0.00  -0.05  -0.15
     3   6    -0.03   0.01   0.00     0.02   0.00   0.00    -0.04  -0.14   0.04
     4   6     0.03   0.01  -0.00     0.02  -0.00   0.00     0.04  -0.14  -0.04
     5   6    -0.07  -0.05  -0.04    -0.10  -0.01  -0.04     0.00  -0.05   0.15
     6   6     0.01   0.03  -0.04    -0.00  -0.02   0.02     0.09   0.07   0.01
     7   6    -0.01  -0.03   0.02     0.01   0.00   0.00    -0.05   0.04   0.03
     8   6    -0.01   0.03   0.04    -0.00   0.02   0.02    -0.09   0.07  -0.01
     9   6     0.04   0.04  -0.02     0.01   0.01  -0.01     0.14   0.08  -0.10
    10   6    -0.04   0.04   0.02     0.01  -0.01  -0.01    -0.14   0.08   0.10
    11   1    -0.12  -0.03  -0.04     0.13  -0.01   0.04    -0.11   0.00   0.09
    12   1    -0.48   0.14  -0.25     0.51  -0.21   0.28     0.19  -0.03  -0.05
    13   1    -0.27  -0.04  -0.22     0.17   0.04   0.13     0.16  -0.12   0.15
    14   1     0.27  -0.04   0.22     0.17  -0.04   0.13    -0.16  -0.12  -0.15
    15   1     0.49   0.15   0.25     0.50   0.21   0.28    -0.19  -0.03   0.05
    16   1     0.01   0.02  -0.04    -0.18   0.01  -0.09    -0.25  -0.06  -0.33
    17   1     0.12  -0.03   0.04     0.13   0.01   0.04     0.11   0.00  -0.09
    18   1    -0.01   0.02   0.04    -0.18  -0.01  -0.09     0.25  -0.06   0.33
    19   1     0.05   0.07  -0.09     0.01  -0.01   0.03     0.19   0.06  -0.21
    20   1    -0.02  -0.04  -0.05     0.06   0.03  -0.01    -0.01   0.11  -0.06
    21   1    -0.05   0.07   0.09     0.01   0.01   0.03    -0.19   0.06   0.21
    22   1     0.02  -0.04   0.05     0.06  -0.03  -0.01     0.01   0.11   0.06
                     16                     17                     18
                      A                      A                      A
 Frequencies --    818.7299               827.5202               836.0260
 Red. masses --      4.2580                 5.2364                 3.7170
 Frc consts  --      1.6817                 2.1127                 1.5307
 IR Inten    --      0.1794                28.7974                 2.1690
  Atom  AN      X      Y      Z        X      Y      Z        X      Y      Z
     1   6    -0.07   0.04   0.06     0.01  -0.24  -0.07    -0.01   0.20   0.06
     2   6     0.01   0.08   0.10    -0.12  -0.00   0.22     0.15   0.01  -0.11
     3   6     0.02   0.17  -0.10    -0.04   0.12   0.05     0.02  -0.08  -0.06
     4   6     0.02  -0.17  -0.10    -0.04  -0.12   0.05    -0.02  -0.08   0.06
     5   6     0.01  -0.08   0.10    -0.12   0.00   0.22    -0.15   0.01   0.11
     6   6    -0.12  -0.12   0.06     0.10   0.01  -0.12    -0.12  -0.01   0.09
     7   6    -0.07  -0.04   0.06     0.01   0.24  -0.07     0.01   0.20  -0.06
     8   6    -0.12   0.12   0.06     0.10  -0.01  -0.12     0.12  -0.01  -0.09
     9   6     0.13   0.13  -0.12     0.07  -0.12  -0.06     0.01  -0.12  -0.03
    10   6     0.13  -0.13  -0.12     0.07   0.12  -0.06    -0.01  -0.12   0.03
    11   1     0.19   0.09  -0.08    -0.03  -0.20  -0.22     0.01   0.18   0.11
    12   1    -0.09  -0.09   0.07    -0.07   0.18   0.23    -0.28  -0.00  -0.32
    13   1    -0.15   0.21  -0.06     0.02   0.00  -0.21    -0.05   0.01   0.13
    14   1    -0.15  -0.21  -0.06     0.02  -0.00  -0.21     0.05   0.01  -0.13
    15   1    -0.09   0.09   0.07    -0.07  -0.18   0.23     0.28  -0.00   0.32
    16   1     0.15  -0.02   0.33    -0.10   0.26  -0.07     0.21  -0.19   0.18
    17   1     0.19  -0.09  -0.08    -0.03   0.20  -0.22    -0.01   0.18  -0.11
    18   1     0.15   0.02   0.33    -0.10  -0.26  -0.07    -0.21  -0.19  -0.18
    19   1     0.13   0.14  -0.13     0.00  -0.03   0.02    -0.06  -0.04   0.09
    20   1     0.07   0.09  -0.13     0.01   0.04   0.02     0.01   0.01   0.04
    21   1     0.13  -0.14  -0.13     0.00   0.03   0.02     0.06  -0.04  -0.09
    22   1     0.07  -0.09  -0.13     0.01  -0.04   0.02    -0.01   0.01  -0.04
                     19                     20                     21
                      A                      A                      A
 Frequencies --    889.5413               912.5639               922.3463
 Red. masses --      1.8728                 1.7553                 1.4224
 Frc consts  --      0.8731                 0.8613                 0.7130
 IR Inten    --     15.2224                13.6338                 1.1692
  Atom  AN      X      Y      Z        X      Y      Z        X      Y      Z
     1   6    -0.01   0.03   0.01    -0.01  -0.01   0.01     0.02   0.01  -0.00
     2   6    -0.03  -0.02  -0.03     0.01   0.01   0.02    -0.02  -0.04  -0.06
     3   6     0.09   0.10  -0.05     0.07   0.04  -0.04    -0.01   0.02   0.01
     4   6    -0.09   0.10   0.05     0.07  -0.04  -0.04     0.01   0.02  -0.01
     5   6     0.03  -0.02   0.03     0.01  -0.01   0.02     0.02  -0.04   0.06
     6   6     0.01  -0.05   0.05     0.03  -0.08   0.05    -0.01   0.07  -0.03
     7   6     0.01   0.03  -0.01    -0.01   0.01   0.01    -0.02   0.01   0.00
     8   6    -0.01  -0.05  -0.05     0.03   0.08   0.05     0.01   0.07   0.03
     9   6     0.09  -0.02   0.03    -0.11  -0.04  -0.04    -0.04  -0.05  -0.04
    10   6    -0.09  -0.02  -0.03    -0.11   0.04  -0.04     0.04  -0.05   0.04
    11   1     0.02   0.06  -0.06    -0.02   0.03  -0.12    -0.09  -0.02   0.09
    12   1     0.05  -0.31   0.03    -0.19  -0.05  -0.08     0.22  -0.16   0.07
    13   1    -0.15   0.05  -0.27     0.41   0.00  -0.01    -0.54   0.03  -0.15
    14   1     0.15   0.05   0.27     0.41  -0.00  -0.01     0.54   0.03   0.15
    15   1    -0.05  -0.31  -0.03    -0.19   0.05  -0.08    -0.22  -0.16  -0.07
    16   1    -0.14  -0.09  -0.08    -0.04  -0.15  -0.04     0.01   0.10  -0.00
    17   1    -0.02   0.06   0.06    -0.02  -0.03  -0.12     0.09  -0.02  -0.09
    18   1     0.14  -0.09   0.08    -0.04   0.15  -0.04    -0.01   0.10   0.00
    19   1     0.18   0.07  -0.33    -0.19  -0.15   0.31    -0.06  -0.13   0.12
    20   1    -0.18  -0.22  -0.02     0.22   0.10  -0.03     0.15  -0.01  -0.06
    21   1    -0.18   0.07   0.33    -0.19   0.15   0.31     0.06  -0.13  -0.12
    22   1     0.18  -0.22   0.02     0.22  -0.10  -0.03    -0.15  -0.01   0.06
                     22                     23                     24
                      A                      A                      A
 Frequencies --    948.5585               950.5540               957.3001
 Red. masses --      1.4413                 1.5755                 1.4622
 Frc consts  --      0.7641                 0.8387                 0.7895
 IR Inten    --      1.5769                 3.8288                 9.4853
  Atom  AN      X      Y      Z        X      Y      Z        X      Y      Z
     1   6    -0.09   0.01  -0.04    -0.08  -0.00  -0.02    -0.06   0.02  -0.06
     2   6     0.02  -0.00   0.00     0.04   0.01  -0.00     0.01  -0.02   0.02
     3   6    -0.02  -0.00   0.03    -0.03  -0.02   0.03     0.01   0.01  -0.03
     4   6     0.02  -0.00  -0.03    -0.03   0.02   0.03     0.01  -0.01  -0.03
     5   6    -0.02  -0.00  -0.00     0.04  -0.01  -0.00     0.01   0.02   0.02
     6   6     0.05   0.04   0.02     0.06   0.05   0.02     0.00  -0.06   0.02
     7   6     0.09   0.01   0.04    -0.08   0.00  -0.02    -0.06  -0.02  -0.06
     8   6    -0.05   0.04  -0.02     0.06  -0.05   0.02     0.00   0.06   0.02
     9   6    -0.01  -0.05   0.04     0.00   0.06  -0.07     0.01  -0.06   0.07
    10   6     0.01  -0.05  -0.04     0.00  -0.06  -0.07     0.01   0.06   0.07
    11   1     0.44  -0.09   0.35     0.29  -0.10   0.33     0.49  -0.03   0.17
    12   1    -0.08   0.06  -0.06    -0.12   0.13  -0.09    -0.07  -0.01  -0.01
    13   1    -0.08   0.04   0.11     0.05   0.05   0.23    -0.01  -0.05  -0.18
    14   1     0.08   0.04  -0.11     0.05  -0.05   0.23    -0.01   0.05  -0.18
    15   1     0.08   0.06   0.06    -0.12  -0.13  -0.09    -0.07   0.01  -0.01
    16   1    -0.25   0.17  -0.09    -0.22   0.23  -0.04    -0.14  -0.20  -0.19
    17   1    -0.44  -0.09  -0.35     0.29   0.10   0.33     0.49   0.03   0.17
    18   1     0.25   0.17   0.09    -0.22  -0.23  -0.04    -0.14   0.20  -0.19
    19   1     0.02  -0.04  -0.06    -0.06   0.04   0.13     0.04   0.03  -0.11
    20   1    -0.07  -0.12   0.02     0.14   0.16  -0.05    -0.12  -0.22   0.02
    21   1    -0.02  -0.04   0.06    -0.06  -0.04   0.13     0.04  -0.03  -0.11
    22   1     0.07  -0.12  -0.02     0.14  -0.16  -0.05    -0.12   0.22   0.02
                     25                     26                     27
                      A                      A                      A
 Frequencies --    964.3418               982.9874               989.1414
 Red. masses --      1.6570                 1.7901                 1.5026
 Frc consts  --      0.9079                 1.0191                 0.8662
 IR Inten    --      0.0029                30.8744                 1.1656
  Atom  AN      X      Y      Z        X      Y      Z        X      Y      Z
     1   6     0.03  -0.01   0.05     0.01   0.01  -0.01     0.01   0.02  -0.02
     2   6     0.00   0.03  -0.01     0.00   0.02   0.00    -0.01   0.00  -0.00
     3   6    -0.02  -0.02   0.05    -0.07  -0.09   0.06    -0.04  -0.05   0.06
     4   6     0.02  -0.02  -0.05    -0.07   0.09   0.06     0.04  -0.05  -0.06
     5   6    -0.00   0.03   0.01     0.00  -0.02   0.00     0.01   0.00   0.00
     6   6     0.02   0.06  -0.00    -0.02  -0.06   0.05    -0.01  -0.06   0.05
     7   6    -0.03  -0.01  -0.05     0.01  -0.01  -0.01    -0.01   0.02   0.02
     8   6    -0.02   0.06   0.00    -0.02   0.06   0.05     0.01  -0.06  -0.05
     9   6     0.03  -0.08   0.10     0.03  -0.06  -0.08    -0.02   0.05   0.07
    10   6    -0.03  -0.08  -0.10     0.03   0.06  -0.08     0.02   0.05  -0.07
    11   1    -0.39   0.02  -0.10     0.05   0.05  -0.16     0.09   0.05  -0.13
    12   1     0.03   0.08   0.00     0.05   0.21   0.01     0.08   0.05   0.04
    13   1    -0.01   0.05   0.23    -0.13  -0.05   0.15    -0.39  -0.03  -0.01
    14   1     0.01   0.05  -0.23    -0.13   0.05   0.15     0.39  -0.03   0.01
    15   1    -0.03   0.08  -0.00     0.05  -0.21   0.01    -0.08   0.05  -0.04
    16   1     0.04   0.26   0.16     0.01  -0.11   0.04    -0.04  -0.13  -0.02
    17   1     0.39   0.02   0.10     0.05  -0.05  -0.16    -0.09   0.05   0.13
    18   1    -0.04   0.26  -0.16     0.01   0.11   0.04     0.04  -0.13   0.02
    19   1     0.06   0.07  -0.15     0.13  -0.30  -0.07    -0.10   0.27   0.04
    20   1    -0.20  -0.27   0.05     0.31  -0.26  -0.24    -0.28   0.22   0.21
    21   1    -0.06   0.07   0.15     0.13   0.30  -0.07     0.10   0.27  -0.04
    22   1     0.20  -0.27  -0.05     0.31   0.26  -0.24     0.28   0.22  -0.21
                     28                     29                     30
                      A                      A                      A
 Frequencies --   1015.5789              1077.2595              1081.1836
 Red. masses --      1.4297                 1.5671                 1.4014
 Frc consts  --      0.8688                 1.0715                 0.9652
 IR Inten    --     16.7560                 0.2106                 2.6643
  Atom  AN      X      Y      Z        X      Y      Z        X      Y      Z
     1   6    -0.00  -0.06   0.01    -0.03  -0.08   0.03    -0.03  -0.06   0.03
     2   6     0.03   0.00  -0.04     0.04   0.05  -0.07     0.02   0.06  -0.05
     3   6    -0.06   0.03  -0.03     0.04   0.04  -0.01     0.05   0.03  -0.01
     4   6    -0.06  -0.03  -0.03    -0.04   0.04   0.01     0.05  -0.03  -0.01
     5   6     0.03  -0.00  -0.04    -0.04   0.05   0.07     0.02  -0.06  -0.05
     6   6    -0.04  -0.02  -0.02    -0.02  -0.05   0.02    -0.00  -0.03   0.03
     7   6    -0.00   0.06   0.01     0.03  -0.08  -0.03    -0.03   0.06   0.03
     8   6    -0.04   0.02  -0.02     0.02  -0.05  -0.02    -0.00   0.03   0.03
     9   6     0.04  -0.03   0.04     0.00   0.02  -0.01    -0.02  -0.01   0.00
    10   6     0.04   0.03   0.04    -0.00   0.02   0.01    -0.02   0.01   0.00
    11   1    -0.08  -0.10   0.10    -0.26  -0.20   0.38    -0.23  -0.15   0.30
    12   1    -0.01   0.07  -0.07     0.17   0.39  -0.05     0.22   0.43   0.01
    13   1     0.39   0.13   0.38    -0.09   0.06  -0.04    -0.15  -0.03  -0.22
    14   1     0.39  -0.13   0.38     0.09   0.06   0.04    -0.15   0.03  -0.22
    15   1    -0.01  -0.07  -0.07    -0.17   0.39   0.05     0.22  -0.43   0.01
    16   1     0.09  -0.03   0.07    -0.02  -0.12  -0.03    -0.04  -0.08  -0.03
    17   1    -0.08   0.10   0.10     0.26  -0.20  -0.38    -0.23   0.15   0.30
    18   1     0.09   0.03   0.07     0.02  -0.12   0.03    -0.04   0.08  -0.03
    19   1    -0.03   0.20  -0.03     0.02   0.00  -0.04    -0.01  -0.03   0.01
    20   1    -0.06  -0.25  -0.05    -0.03   0.08   0.03    -0.01   0.00   0.01
    21   1    -0.03  -0.20  -0.03    -0.02   0.00   0.04    -0.01   0.03   0.01
    22   1    -0.06   0.25  -0.05     0.03   0.08  -0.03    -0.01  -0.00   0.01
                     31                     32                     33
                      A                      A                      A
 Frequencies --   1090.0070              1095.4116              1115.8078
 Red. masses --      1.2810                 1.1998                 1.3467
 Frc consts  --      0.8967                 0.8483                 0.9879
 IR Inten    --      0.2584                 0.6902                 2.2746
  Atom  AN      X      Y      Z        X      Y      Z        X      Y      Z
     1   6     0.00   0.04   0.00     0.02   0.02  -0.01     0.01  -0.05  -0.03
     2   6    -0.03   0.04   0.03    -0.01   0.03   0.02     0.03   0.00  -0.06
     3   6     0.02  -0.07  -0.02    -0.01  -0.06  -0.02     0.01   0.00   0.00
     4   6    -0.02  -0.07   0.02    -0.01   0.06  -0.02    -0.01   0.00  -0.00
     5   6     0.03   0.04  -0.03    -0.01  -0.03   0.02    -0.03   0.00   0.06
     6   6     0.00   0.02   0.01    -0.04   0.01   0.01    -0.05  -0.02   0.04
     7   6    -0.00   0.04  -0.00     0.02  -0.02  -0.01    -0.01  -0.05   0.03
     8   6    -0.00   0.02  -0.01    -0.04  -0.01   0.01     0.05  -0.02  -0.04
     9   6     0.00  -0.03   0.01     0.01   0.02   0.01     0.01   0.03  -0.03
    10   6    -0.00  -0.03  -0.01     0.01  -0.02   0.01    -0.01   0.03   0.03
    11   1     0.05   0.06  -0.04     0.13   0.07  -0.16     0.19   0.02  -0.28
    12   1     0.12   0.36   0.08     0.06   0.29   0.04     0.05   0.06  -0.07
    13   1     0.05  -0.27  -0.48     0.27  -0.21  -0.26    -0.03   0.02   0.01
    14   1    -0.05  -0.27   0.48     0.27   0.21  -0.26     0.03   0.02  -0.01
    15   1    -0.12   0.36  -0.08     0.06  -0.29   0.04    -0.05   0.06   0.07
    16   1    -0.05   0.08   0.02    -0.04   0.21   0.17    -0.13   0.40   0.32
    17   1    -0.05   0.06   0.04     0.13  -0.07  -0.16    -0.19   0.02   0.28
    18   1     0.05   0.08  -0.02    -0.04  -0.21   0.17     0.13   0.40  -0.32
    19   1     0.02  -0.04  -0.02    -0.12   0.26   0.09     0.13  -0.18  -0.12
    20   1     0.02  -0.11  -0.04    -0.00  -0.04  -0.02     0.01   0.13   0.02
    21   1    -0.01  -0.04   0.02    -0.12  -0.26   0.09    -0.13  -0.18   0.12
    22   1    -0.02  -0.11   0.04    -0.00   0.04  -0.02    -0.01   0.13  -0.02
                     34                     35                     36
                      A                      A                      A
 Frequencies --   1122.6345              1136.1827              1157.3457
 Red. masses --      1.4857                 1.1682                 1.2011
 Frc consts  --      1.1032                 0.8885                 0.9478
 IR Inten    --      4.8839                 4.3417                 4.6856
  Atom  AN      X      Y      Z        X      Y      Z        X      Y      Z
     1   6    -0.00  -0.07  -0.03    -0.01  -0.02  -0.01     0.00  -0.02  -0.01
     2   6     0.04  -0.00  -0.07     0.02   0.00  -0.03     0.00   0.00  -0.03
     3   6     0.01   0.03  -0.01    -0.01   0.01  -0.03     0.06   0.01   0.05
     4   6     0.01  -0.03  -0.01     0.01   0.01   0.03     0.06  -0.01   0.05
     5   6     0.04   0.00  -0.07    -0.02   0.00   0.03     0.00  -0.00  -0.03
     6   6    -0.01  -0.03   0.06     0.03  -0.02   0.05    -0.02  -0.00  -0.02
     7   6    -0.00   0.07  -0.03     0.01  -0.02   0.01     0.00   0.02  -0.01
     8   6    -0.01   0.03   0.06    -0.03  -0.02  -0.05    -0.02   0.00  -0.02
     9   6    -0.03  -0.03   0.04     0.02   0.00  -0.02    -0.00  -0.03  -0.01
    10   6    -0.03   0.03   0.04    -0.02   0.00   0.02    -0.00   0.03  -0.01
    11   1     0.16   0.00  -0.28     0.02   0.00  -0.10     0.04  -0.02  -0.02
    12   1     0.04  -0.03  -0.08     0.05   0.02  -0.02    -0.01  -0.17  -0.02
    13   1    -0.13   0.09   0.08    -0.00   0.03   0.02    -0.31   0.05   0.01
    14   1    -0.13  -0.09   0.08     0.00   0.03  -0.02    -0.31  -0.05   0.01
    15   1     0.04   0.03  -0.08    -0.05   0.02   0.02    -0.01   0.17  -0.02
    16   1    -0.18   0.38   0.28    -0.10   0.11   0.06     0.00   0.05   0.05
    17   1     0.16  -0.00  -0.28    -0.02   0.00   0.10     0.04   0.02  -0.02
    18   1    -0.18  -0.38   0.28     0.10   0.11  -0.06     0.00  -0.05   0.05
    19   1     0.07  -0.18  -0.06    -0.25   0.44   0.25    -0.25   0.34   0.27
    20   1    -0.13   0.07   0.12     0.18  -0.26  -0.19     0.14  -0.25  -0.14
    21   1     0.07   0.18  -0.06     0.25   0.44  -0.25    -0.25  -0.34   0.27
    22   1    -0.13  -0.07   0.12    -0.18  -0.26   0.19     0.14   0.25  -0.14
                     37                     38                     39
                      A                      A                      A
 Frequencies --   1278.0924              1281.7066              1306.8122
 Red. masses --      1.7050                 1.7181                 1.5739
 Frc consts  --      1.6410                 1.6630                 1.5836
 IR Inten    --      5.1419                 2.5471                 1.8215
  Atom  AN      X      Y      Z        X      Y      Z        X      Y      Z
     1   6    -0.01   0.02   0.03     0.01  -0.02  -0.03     0.02   0.04  -0.03
     2   6     0.01  -0.03  -0.03    -0.01   0.04   0.03     0.02   0.04  -0.03
     3   6    -0.02  -0.02   0.02     0.03   0.02  -0.03    -0.06   0.02   0.08
     4   6    -0.02   0.02   0.02    -0.03   0.02   0.03    -0.06  -0.02   0.08
     5   6     0.01   0.03  -0.03     0.01   0.04  -0.03     0.02  -0.04  -0.03
     6   6    -0.01  -0.03   0.02     0.02   0.03  -0.03     0.00  -0.09  -0.01
     7   6    -0.01  -0.02   0.03    -0.01  -0.02   0.03     0.02  -0.04  -0.03
     8   6    -0.01   0.03   0.02    -0.02   0.03   0.03     0.00   0.09  -0.01
     9   6     0.07  -0.12  -0.07     0.07  -0.12  -0.08     0.03  -0.03  -0.02
    10   6     0.07   0.12  -0.07    -0.07  -0.12   0.08     0.03   0.03  -0.02
    11   1     0.05   0.06  -0.08    -0.04  -0.06   0.07    -0.18  -0.07   0.30
    12   1     0.05   0.08  -0.02    -0.05  -0.09   0.02    -0.07  -0.35  -0.04
    13   1    -0.08   0.01   0.09     0.08  -0.01  -0.08     0.15  -0.17  -0.28
    14   1    -0.08  -0.01   0.09    -0.08  -0.01   0.08     0.16   0.17  -0.29
    15   1     0.05  -0.08  -0.02     0.05  -0.09  -0.02    -0.07   0.36  -0.04
    16   1     0.03  -0.17  -0.05    -0.03   0.16   0.04    -0.07   0.21   0.16
    17   1     0.05  -0.06  -0.08     0.04  -0.06  -0.07    -0.18   0.07   0.31
    18   1     0.03   0.17  -0.05     0.03   0.16  -0.04    -0.07  -0.21   0.16
    19   1    -0.14   0.23   0.12    -0.14   0.23   0.13     0.03  -0.03  -0.03
    20   1    -0.26   0.42   0.26    -0.26   0.42   0.26    -0.02   0.03   0.02
    21   1    -0.14  -0.23   0.12     0.14   0.23  -0.13     0.03   0.03  -0.03
    22   1    -0.26  -0.42   0.26     0.26   0.42  -0.26    -0.02  -0.03   0.02
                     40                     41                     42
                      A                      A                      A
 Frequencies --   1306.9944              1386.1890              1424.7544
 Red. masses --      1.5810                 3.3080                 2.1342
 Frc consts  --      1.5912                 3.7451                 2.5525
 IR Inten    --      1.0372                10.8858                 8.5433
  Atom  AN      X      Y      Z        X      Y      Z        X      Y      Z
     1   6    -0.02  -0.04   0.03    -0.06  -0.04   0.06     0.05   0.09  -0.06
     2   6    -0.02  -0.03   0.03     0.04   0.21   0.04    -0.05  -0.04   0.08
     3   6     0.07  -0.02  -0.08     0.07  -0.15  -0.07     0.05  -0.05  -0.09
     4   6    -0.07  -0.02   0.08    -0.07  -0.15   0.07     0.05   0.05  -0.09
     5   6     0.02  -0.03  -0.03    -0.04   0.21  -0.04    -0.05   0.04   0.08
     6   6    -0.00   0.09   0.01     0.05  -0.04  -0.07     0.01  -0.09  -0.03
     7   6     0.02  -0.04  -0.03     0.06  -0.04  -0.06     0.05  -0.09  -0.06
     8   6     0.00   0.08  -0.01    -0.05  -0.04   0.07     0.01   0.09  -0.03
     9   6     0.02  -0.03  -0.02     0.03   0.07  -0.03    -0.02  -0.04   0.02
    10   6    -0.02  -0.03   0.02    -0.03   0.07   0.03    -0.02   0.04   0.02
    11   1     0.18   0.07  -0.31    -0.01  -0.03   0.01    -0.18  -0.01   0.31
    12   1     0.07   0.34   0.04    -0.11  -0.40   0.03    -0.02   0.19   0.10
    13   1    -0.19   0.17   0.28    -0.37  -0.02   0.12    -0.17   0.14   0.31
    14   1     0.19   0.17  -0.28     0.37  -0.02  -0.12    -0.17  -0.14   0.31
    15   1    -0.07   0.34  -0.04     0.11  -0.40  -0.03    -0.02  -0.19   0.10
    16   1     0.07  -0.21  -0.17    -0.01   0.13   0.01    -0.08   0.28   0.20
    17   1    -0.18   0.07   0.31     0.01  -0.03  -0.01    -0.18   0.01   0.31
    18   1    -0.07  -0.21   0.17     0.01   0.13  -0.01    -0.08  -0.28   0.20
    19   1     0.03  -0.02  -0.03     0.06  -0.14   0.08    -0.05  -0.00   0.03
    20   1    -0.01   0.02   0.01    -0.05  -0.10  -0.10    -0.04  -0.00   0.04
    21   1    -0.03  -0.02   0.03    -0.06  -0.14  -0.08    -0.05   0.00   0.03
    22   1     0.01   0.02  -0.01     0.05  -0.10   0.10    -0.04   0.00   0.04
                     43                     44                     45
                      A                      A                      A
 Frequencies --   1429.5805              1434.6472              1461.0888
 Red. masses --      2.1035                 3.6365                 1.1290
 Frc consts  --      2.5328                 4.4098                 1.4200
 IR Inten    --      3.4543                 2.1041                 4.7895
  Atom  AN      X      Y      Z        X      Y      Z        X      Y      Z
     1   6     0.06   0.10  -0.06    -0.07  -0.05   0.11    -0.01  -0.02   0.01
     2   6    -0.06  -0.07   0.07     0.03   0.22   0.03     0.01   0.03   0.00
     3   6     0.05  -0.03  -0.08     0.01  -0.15  -0.09     0.00  -0.02   0.00
     4   6    -0.05  -0.03   0.08     0.01   0.15  -0.09    -0.00  -0.02  -0.00
     5   6     0.06  -0.07  -0.07     0.03  -0.22   0.03    -0.01   0.03  -0.00
     6   6     0.01  -0.09  -0.03     0.06  -0.03  -0.09     0.01   0.01   0.00
     7   6    -0.06   0.10   0.06    -0.07   0.05   0.11     0.01  -0.02  -0.01
     8   6    -0.01  -0.09   0.03     0.06   0.03  -0.09    -0.01   0.01  -0.00
     9   6     0.01   0.03  -0.01    -0.03  -0.06   0.04    -0.04  -0.04   0.03
    10   6    -0.01   0.03   0.01    -0.03   0.06   0.04     0.04  -0.04  -0.03
    11   1    -0.17   0.00   0.30     0.04   0.01  -0.09     0.01  -0.01  -0.02
    12   1     0.00   0.22   0.10    -0.07  -0.33   0.04    -0.03  -0.08  -0.00
    13   1    -0.17   0.14   0.27    -0.11  -0.06   0.13    -0.02  -0.03  -0.01
    14   1     0.17   0.14  -0.27    -0.11   0.06   0.13     0.02  -0.03   0.01
    15   1    -0.00   0.22  -0.10    -0.07   0.33   0.04     0.03  -0.08   0.00
    16   1    -0.08   0.27   0.19     0.01   0.09  -0.03     0.01  -0.03  -0.03
    17   1     0.17   0.00  -0.30     0.04  -0.01  -0.09    -0.01  -0.01   0.02
    18   1     0.08   0.27  -0.19     0.01  -0.09  -0.03    -0.01  -0.03   0.03
    19   1     0.04   0.07  -0.10     0.02   0.18  -0.31     0.03   0.26  -0.41
    20   1     0.12   0.05  -0.03     0.22   0.17   0.10     0.45   0.22   0.04
    21   1    -0.04   0.07   0.10     0.02  -0.18  -0.31    -0.03   0.26   0.41
    22   1    -0.12   0.05   0.03     0.22  -0.17   0.10    -0.45   0.22  -0.04
                     46                     47                     48
                      A                      A                      A
 Frequencies --   1462.9298              1547.9948              1562.2875
 Red. masses --      1.2139                 4.1637                 4.4501
 Frc consts  --      1.5307                 5.8786                 6.3995
 IR Inten    --     11.9086                 6.0107                 0.6781
  Atom  AN      X      Y      Z        X      Y      Z        X      Y      Z
     1   6     0.01   0.01  -0.02    -0.10   0.08   0.21     0.12  -0.07  -0.23
     2   6    -0.00  -0.05  -0.01    -0.00  -0.12  -0.06    -0.02   0.09   0.06
     3   6    -0.00   0.04   0.02    -0.01   0.06   0.05     0.02  -0.05  -0.04
     4   6    -0.00  -0.04   0.02    -0.01  -0.06   0.05    -0.02  -0.05   0.04
     5   6    -0.00   0.05  -0.01    -0.00   0.12  -0.06     0.02   0.09  -0.06
     6   6    -0.02   0.00   0.02     0.10  -0.11  -0.18    -0.10   0.12   0.20
     7   6     0.01  -0.01  -0.02    -0.10  -0.08   0.21    -0.12  -0.07   0.23
     8   6    -0.02  -0.00   0.02     0.10   0.11  -0.18     0.10   0.12  -0.20
     9   6    -0.03  -0.03   0.02    -0.01   0.01   0.02    -0.01   0.00   0.02
    10   6    -0.03   0.03   0.03    -0.01  -0.01   0.02     0.01   0.00  -0.02
    11   1     0.00  -0.00   0.02     0.15   0.24  -0.20    -0.16  -0.25   0.22
    12   1     0.02   0.08  -0.02     0.13   0.28  -0.04    -0.10  -0.24   0.06
    13   1     0.01   0.03  -0.03     0.00   0.02  -0.08    -0.02  -0.01   0.05
    14   1     0.01  -0.03  -0.03     0.00  -0.02  -0.08     0.02  -0.01  -0.05
    15   1     0.02  -0.08  -0.02     0.13  -0.28  -0.04     0.10  -0.24  -0.06
    16   1    -0.01  -0.01   0.02     0.00   0.28   0.01    -0.02  -0.28  -0.00
    17   1     0.00   0.00   0.02     0.15  -0.24  -0.20     0.16  -0.25  -0.22
    18   1    -0.01   0.01   0.02     0.00  -0.28   0.01     0.02  -0.28   0.00
    19   1     0.03   0.27  -0.39     0.04  -0.10  -0.01     0.04  -0.11   0.01
    20   1     0.46   0.21   0.03     0.02  -0.18  -0.08    -0.01  -0.19  -0.07
    21   1     0.03  -0.27  -0.39     0.04   0.10  -0.01    -0.04  -0.11  -0.01
    22   1     0.46  -0.21   0.03     0.02   0.18  -0.08     0.01  -0.19   0.07
                     49                     50                     51
                      A                      A                      A
 Frequencies --   2979.7019              2979.7963              3088.3464
 Red. masses --      1.0722                 1.0725                 1.0878
 Frc consts  --      5.6089                 5.6110                 6.1129
 IR Inten    --     93.8274                13.4519                16.5201
  Atom  AN      X      Y      Z        X      Y      Z        X      Y      Z
     1   6     0.00   0.00  -0.00    -0.00  -0.00   0.00     0.00  -0.00   0.00
     2   6    -0.00  -0.00   0.00     0.00   0.00  -0.00    -0.00   0.00   0.00
     3   6    -0.00  -0.00  -0.00     0.00   0.00   0.00     0.00  -0.00   0.00
     4   6    -0.00   0.00  -0.00    -0.00   0.00  -0.00    -0.00  -0.00  -0.00
     5   6    -0.00   0.00   0.00    -0.00   0.00   0.00     0.00   0.00  -0.00
     6   6    -0.00   0.00  -0.00     0.00  -0.00   0.00     0.00   0.00  -0.00
     7   6     0.00  -0.00  -0.00     0.00  -0.00  -0.00    -0.00  -0.00  -0.00
     8   6    -0.00  -0.00  -0.00    -0.00  -0.00  -0.00    -0.00   0.00   0.00
     9   6    -0.05  -0.02  -0.01    -0.05  -0.02  -0.01    -0.02   0.02  -0.05
    10   6    -0.05   0.02  -0.01     0.05  -0.02   0.01     0.02   0.02   0.05
    11   1    -0.00  -0.00  -0.00     0.00   0.00   0.00    -0.00   0.00  -0.00
    12   1    -0.00   0.00  -0.00    -0.00  -0.00   0.00     0.00  -0.00  -0.01
    13   1     0.00   0.02  -0.00    -0.00  -0.02   0.00     0.00   0.03  -0.01
    14   1     0.00  -0.02  -0.00     0.00  -0.02  -0.00    -0.00   0.03   0.01
    15   1    -0.00  -0.00  -0.00     0.00  -0.00  -0.00    -0.00  -0.00   0.01
    16   1    -0.00  -0.00   0.01     0.00   0.00  -0.01    -0.01  -0.01   0.02
    17   1    -0.00   0.00  -0.00    -0.00   0.00  -0.00     0.00   0.00   0.00
    18   1    -0.00   0.00   0.01    -0.00   0.00   0.01     0.01  -0.01  -0.02
    19   1     0.60   0.23   0.24     0.62   0.24   0.24     0.07   0.03   0.02
    20   1    -0.03   0.03  -0.09    -0.03   0.03  -0.08     0.13  -0.30   0.62
    21   1     0.62  -0.24   0.24    -0.61   0.24  -0.24    -0.07   0.03  -0.02
    22   1    -0.03  -0.03  -0.09     0.03   0.03   0.08    -0.13  -0.30  -0.62
                     52                     53                     54
                      A                      A                      A
 Frequencies --   3089.9430              3166.8063              3173.2065
 Red. masses --      1.0886                 1.0914                 1.0903
 Frc consts  --      6.1235                 6.4485                 6.4682
 IR Inten    --     37.3783                 3.5939                25.1974
  Atom  AN      X      Y      Z        X      Y      Z        X      Y      Z
     1   6    -0.00   0.00  -0.00     0.00   0.00   0.00     0.00   0.00   0.00
     2   6    -0.00  -0.00   0.00     0.00   0.00  -0.01     0.00   0.00  -0.01
     3   6    -0.00   0.00  -0.00    -0.01  -0.06   0.02    -0.01  -0.06   0.02
     4   6    -0.00  -0.00  -0.00    -0.01   0.06   0.02     0.01  -0.06  -0.02
     5   6    -0.00   0.00   0.00     0.00  -0.00  -0.01    -0.00   0.00   0.01
     6   6    -0.00  -0.00   0.00    -0.00  -0.00   0.00    -0.00  -0.00   0.00
     7   6    -0.00  -0.00  -0.00     0.00  -0.00   0.00    -0.00   0.00  -0.00
     8   6    -0.00   0.00   0.00    -0.00   0.00   0.00     0.00  -0.00  -0.00
     9   6    -0.02   0.02  -0.05     0.00   0.00  -0.00    -0.00  -0.00   0.00
    10   6    -0.02  -0.02  -0.05     0.00  -0.00  -0.00     0.00  -0.00  -0.00
    11   1     0.00   0.00   0.00     0.00  -0.03  -0.01     0.00  -0.03  -0.01
    12   1     0.00  -0.00  -0.00    -0.05   0.01   0.10    -0.05   0.01   0.11
    13   1     0.00  -0.01   0.00     0.10   0.64  -0.26     0.09   0.63  -0.26
    14   1     0.00   0.01   0.00     0.10  -0.64  -0.26    -0.09   0.63   0.26
    15   1     0.00   0.00  -0.00    -0.05  -0.01   0.10     0.05   0.01  -0.11
    16   1     0.01   0.01  -0.02     0.01   0.01  -0.02     0.01   0.01  -0.02
    17   1     0.00  -0.00   0.00     0.00   0.03  -0.01    -0.00  -0.03   0.01
    18   1     0.01  -0.01  -0.02     0.01  -0.01  -0.02    -0.01   0.01   0.02
    19   1     0.08   0.04   0.02    -0.01  -0.00  -0.00     0.01   0.00   0.00
    20   1     0.13  -0.30   0.62     0.00  -0.00   0.01    -0.00   0.01  -0.03
    21   1     0.08  -0.04   0.02    -0.01   0.00  -0.00    -0.01   0.00  -0.00
    22   1     0.13   0.30   0.62     0.00   0.00   0.01     0.00   0.01   0.03
                     55                     56                     57
                      A                      A                      A
 Frequencies --   3187.8003              3189.3605              3214.3999
 Red. masses --      1.0884                 1.0884                 1.0975
 Frc consts  --      6.5167                 6.5230                 6.6810
 IR Inten    --      8.9407                17.1780                18.8040
  Atom  AN      X      Y      Z        X      Y      Z        X      Y      Z
     1   6    -0.00   0.05   0.02     0.00  -0.05  -0.02    -0.00   0.02   0.01
     2   6     0.00  -0.00  -0.01    -0.00   0.00   0.01     0.01  -0.00  -0.02
     3   6     0.00   0.00  -0.00    -0.00  -0.00   0.00    -0.00   0.00   0.00
     4   6     0.00  -0.00  -0.00     0.00  -0.00  -0.00    -0.00  -0.00   0.00
     5   6     0.00   0.00  -0.01     0.00   0.00  -0.01     0.01   0.00  -0.02
     6   6    -0.01  -0.01   0.01     0.01   0.01  -0.02     0.03   0.03  -0.04
     7   6    -0.00  -0.05   0.02    -0.00  -0.05   0.02    -0.00  -0.02   0.01
     8   6    -0.01   0.01   0.01    -0.01   0.01   0.02     0.03  -0.03  -0.04
     9   6    -0.00  -0.00   0.00     0.00  -0.00   0.00    -0.00   0.00  -0.00
    10   6    -0.00   0.00   0.00    -0.00  -0.00  -0.00    -0.00  -0.00  -0.00
    11   1     0.02  -0.60  -0.18    -0.02   0.60   0.18     0.01  -0.23  -0.07
    12   1    -0.05   0.01   0.10     0.05  -0.01  -0.10    -0.10   0.02   0.20
    13   1    -0.01  -0.05   0.02     0.01   0.05  -0.02    -0.00  -0.02   0.01
    14   1    -0.01   0.05   0.02    -0.01   0.05   0.02    -0.00   0.02   0.01
    15   1    -0.05  -0.01   0.10    -0.05  -0.01   0.10    -0.09  -0.02   0.18
    16   1     0.14   0.15  -0.19    -0.14  -0.16   0.21    -0.31  -0.34   0.44
    17   1     0.02   0.61  -0.18     0.02   0.60  -0.18     0.01   0.22  -0.07
    18   1     0.14  -0.15  -0.20     0.14  -0.16  -0.21    -0.29   0.33   0.42
    19   1     0.00   0.00   0.00    -0.00   0.00  -0.00    -0.00  -0.00  -0.00
    20   1    -0.00   0.00  -0.01    -0.00   0.01  -0.01     0.00  -0.01   0.02
    21   1     0.00  -0.00   0.00     0.00   0.00   0.00    -0.00   0.00  -0.00
    22   1    -0.00  -0.00  -0.01     0.00   0.01   0.01     0.00   0.01   0.02
                     58                     59                     60
                      A                      A                      A
 Frequencies --   3214.4951              3229.4782              3229.8828
 Red. masses --      1.0978                 1.0990                 1.0993
[...]
 90,0.00079556,0.00034427,0.00072909,-0.00479286,0.05037744,-0.00129803
 ,0.00552485,-0.00379972,-0.12733782,0.02313674,-0.28269416,-0.00688392
 ,-0.00386098,-0.00615273,0.00016437,-0.00014712,-0.00025573,-0.0006547
 9,0.00059203,-0.00022112,-0.00207252,-0.00035251,-0.00083114,0.0000721
 6,-0.00020616,0.00079764,0.00115693,-0.00069799,-0.00104777,-0.0005030
 2,-0.00037770,-0.00030042,-0.00126371,0.00121074,0.00029103,0.00063143
 ,-0.00047265,-0.00027313,0.13747366,-0.02568131,0.29448203,0.00527967,
 0.00053188,0.00098196,0.00077512,-0.00467846,0.00282987,-0.03824146,-0
 .02500033,-0.03029329,-0.00846196,0.01042851,0.01178262,-0.00164632,-0
 .00456401,-0.00091630,-0.00264643,0.00198327,-0.00450109,-0.00096242,0
 .00116925,-0.00174835,-0.00061876,0.00123367,0.00151180,0.00176843,0.0
 0061040,0.00077904,-0.00131358,-0.01838513,-0.00335161,0.00035219,-0.0
 0017395,0.00007076,-0.00220589,0.00021452,0.00155199,0.04481379,0.0004
 0251,-0.00375627,0.00214371,-0.00378701,-0.01422341,-0.01390767,-0.033
 83456,-0.28996168,-0.09759399,-0.00080714,-0.00034009,0.00047452,-0.00
 009157,0.00023490,-0.00013322,0.00078525,-0.00019575,0.00089594,-0.000
 07375,0.00052550,0.00001447,-0.00022675,-0.00014742,0.00042050,0.00001
 315,-0.00009580,-0.00021724,0.00178403,0.00195819,0.00197072,-0.001072
 78,-0.00052442,-0.00040211,-0.00001238,0.00071048,0.00051211,0.0376840
 7,0.30457965,-0.00307398,0.00302717,-0.00319203,0.00420075,0.02089547,
 0.01040628,-0.02991116,-0.10609159,-0.08498052,0.00453674,-0.00689227,
 -0.00675655,0.00094539,0.00211971,0.00055541,-0.00317195,-0.00146888,-
 0.00244994,0.00020189,-0.00034957,0.00030738,0.00022338,0.00023724,-0.
 00062164,-0.00107099,-0.00019856,0.00013627,0.00439404,-0.01629217,-0.
 00413167,0.00064456,0.00067139,0.00057000,0.00140100,-0.00140558,-0.00
 045299,0.02255169,0.10588355,0.08853573,-0.00096252,-0.00116956,-0.001
 74842,-0.00164624,0.00456397,-0.00091679,-0.00846208,-0.01042741,0.011
 78385,-0.03824248,0.02500210,-0.03029800,0.00077519,0.00467879,0.00282
 933,-0.00061886,-0.00123366,0.00151210,0.00527952,-0.00053159,0.000981
 83,-0.00264649,-0.00198361,-0.00450082,-0.00131390,0.01838480,-0.00335
 355,0.00176843,-0.00061033,0.00077913,0.00021559,-0.00006953,-0.000202
 89,0.00016479,-0.00003866,-0.00000780,0.00105238,-0.00017580,-0.000284
 94,0.04481561,0.00007375,0.00052552,-0.00001453,0.00009163,0.00023476,
 0.00013324,0.00080750,-0.00033958,-0.00047498,0.03383620,-0.28994017,0
 .09761483,0.00378783,-0.01422403,0.01391012,0.00022678,-0.00014750,-0.
 00042055,-0.00040273,-0.00375681,-0.00214363,-0.00078563,-0.00019571,-
 0.00089623,-0.00178366,0.00195994,-0.00197139,-0.00001321,-0.00009579,
 0.00021729,-0.00006712,0.00005224,0.00003873,0.00004467,0.00000133,-0.
 00005738,0.00017580,0.00074945,0.00003506,-0.03768675,0.30455700,0.000
 20194,0.00034961,0.00030743,0.00094535,-0.00211979,0.00055567,0.004536
 88,0.00689182,-0.00675750,-0.02991698,0.10611255,-0.08500090,0.0042007
 3,-0.02089295,0.01040683,0.00022341,-0.00023726,-0.00062167,-0.0030739
 8,-0.00302716,-0.00319140,-0.00317183,0.00146850,-0.00244991,0.0043938
 9,0.01629148,-0.00413315,-0.00107108,0.00019859,0.00013625,-0.00011954
 ,-0.00001657,0.00007208,-0.00014254,0.00003548,0.00008994,-0.00028497,
 -0.00003520,-0.00027001,0.02255773,-0.10590547,0.08855720,-0.00083728,
 -0.00082514,-0.00234723,0.00144620,0.00213998,0.00072496,-0.00119732,-
 0.00092873,0.00181385,0.00285773,0.00102869,-0.00027122,-0.08863933,-0
 .00393998,-0.12835868,-0.00284136,-0.00079608,0.00361697,-0.00442718,-
 0.00400745,-0.00996474,0.00114479,0.00292362,-0.00084869,0.00340069,0.
 00000993,-0.00276339,0.00018766,-0.00040138,0.00002755,-0.00001764,0.0
 0000232,-0.00005806,-0.00023438,0.00008316,0.00003545,0.00016480,-0.00
 004468,-0.00014255,-0.00220586,0.00001248,0.00140100,0.09197988,0.0000
 7451,-0.00009527,-0.00035494,0.00051111,-0.00016495,0.00041617,-0.0002
 8152,-0.00023434,-0.00026152,-0.01289645,0.00518507,-0.02023581,-0.002
 34754,-0.05774859,-0.02470702,-0.00054793,-0.00012348,0.00062724,0.007
 15500,0.00833735,0.01956140,0.00248417,-0.00386266,0.00276779,0.001602
 80,-0.00374354,-0.00350454,0.00035523,0.00004471,-0.00037709,0.0000295
 8,0.00000507,0.00000942,-0.00008316,-0.00002373,0.00001049,0.00003868,
 0.00000133,-0.00003548,-0.00021441,0.00071058,0.00140549,0.00480724,0.
 05038242,0.00007218,0.00020627,0.00079779,-0.00065483,-0.00059214,-0.0
 0022117,0.00016451,0.00014717,-0.00025582,-0.00688268,0.00385982,-0.00
 615083,-0.12733897,-0.02316150,-0.28269012,0.00115716,0.00069801,-0.00
 104810,-0.00129827,-0.00552605,-0.00380075,-0.00207272,0.00035267,-0.0
 0083151,-0.00126385,-0.00121029,0.00029156,-0.00050311,0.00037766,-0.0
 0030041,0.00001699,-0.00001893,0.00001109,0.00003547,-0.00001049,0.000
 07345,-0.00000782,0.00005738,0.00008994,0.00155202,-0.00051221,-0.0004
 5310,0.13747384,0.02570799,0.29447725,-0.00083112,-0.00716751,-0.00439
 463,0.00327356,0.00031008,-0.00493213,-0.00094384,-0.00007389,-0.00092
 311,0.00022121,0.00008680,0.00021615,-0.00009642,0.00010999,-0.0003792
 0,-0.10342910,-0.07820811,-0.11153756,0.00041890,-0.00034186,0.0002837
 9,-0.00003423,-0.00000807,-0.00037124,0.00017640,0.00035176,0.00019193
 ,0.00181784,0.00296533,0.00399088,-0.00304284,0.00068492,0.00208903,0.
 00039044,-0.00104523,-0.00038487,0.00098162,-0.00013508,-0.00102477,-0
 .00002890,-0.00006105,-0.00005003,0.00000963,-0.00014126,0.00017853,0.
 10133330,0.00681417,0.01030694,0.00894501,0.00052793,-0.00062726,0.002
 76441,0.00122389,-0.00574391,0.00034387,0.00040335,-0.00011840,-0.0002
 4236,0.00011346,0.00003111,-0.00012590,-0.07760254,-0.14062976,-0.1078
 5329,-0.00007572,0.00014264,0.00002616,-0.00013064,-0.00004175,0.00015
 120,-0.00001141,0.00010658,-0.00003964,-0.01387869,-0.00462962,-0.0178
 0111,-0.00009794,0.00026541,-0.00112258,0.00016170,0.00081799,0.000269
 25,-0.00139317,0.00012775,-0.00100095,0.00004442,0.00004735,-0.0000626
 2,-0.00008759,-0.00001778,0.00011637,0.08342568,0.13942911,-0.01017918
 ,-0.01757212,-0.00842992,-0.00373953,0.00247268,-0.00189044,0.00061558
 ,0.00202317,0.00027124,0.00007309,-0.00002625,-0.00017627,-0.00004039,
 0.00007762,0.00044275,-0.10802116,-0.10392841,-0.18400736,-0.00019523,
 0.00007395,-0.00017746,0.00004955,0.00011271,0.00021357,-0.00007769,-0
 .00019789,-0.00007893,0.00294283,0.00307413,0.00249777,0.00232961,0.00
 015663,-0.00055578,-0.00078287,-0.00074423,-0.00017746,-0.00037103,0.0
 0006170,0.00099906,-0.00001180,0.00003695,0.00005847,-0.00007523,0.000
 02152,0.00003798,0.11761228,0.11523381,0.19052524,0.00011440,-0.000034
 13,0.00021098,-0.00001024,-0.00014519,0.00015338,0.00013202,-0.0006910
 8,-0.00045781,0.00196394,0.00284241,-0.00384702,0.00223159,0.01226908,
 0.00593725,0.00035581,-0.00004700,-0.00037873,-0.04242364,-0.00682231,
 -0.01015598,0.00328742,-0.01303795,-0.00249032,0.00568241,0.00015800,-
 0.00664905,0.00002858,0.00002339,0.00001512,-0.00013122,-0.00005399,0.
 00011270,-0.00001764,-0.00002958,0.00001700,0.00021558,0.00006710,-0.0
 0011954,0.00035217,0.00107286,0.00064447,-0.00118742,-0.00079551,0.000
 63144,-0.00008925,0.00001214,0.00001457,0.03251170,-0.00018193,-0.0001
 7004,-0.00015603,-0.00004795,0.00021949,-0.00034779,-0.00031994,-0.000
 04086,0.00034958,0.00123317,-0.00277500,0.00142218,-0.00393219,-0.0109
 2829,-0.00955766,-0.00012367,0.00024009,0.00040253,-0.00463011,-0.3167
 0616,-0.07702702,0.00172660,-0.00375959,0.00163010,0.00123420,0.000237
 31,-0.00144178,0.00005870,-0.00007250,-0.00002705,0.00005399,0.0001659
 1,-0.00008702,-0.00000234,0.00000507,0.00001893,0.00006952,0.00005224,
 0.00001657,0.00017397,-0.00052442,-0.00067127,0.00000404,0.00034421,0.
 00047260,0.00011827,0.00000521,-0.00001679,0.00555478,0.33381500,0.000
 05107,-0.00008512,0.00012748,0.00003676,-0.00018994,0.00005463,0.00039
 294,0.00048858,-0.00020821,-0.00374151,0.00288444,-0.00046098,0.001972
 17,0.01381262,0.00895978,0.00000638,0.00009187,0.00016324,-0.01075905,
 -0.07500748,-0.07694836,0.00062092,-0.02483828,0.00179386,-0.00487463,
 -0.00158100,-0.00164486,-0.00003975,0.00001162,-0.00006702,0.00011269,
 0.00008700,-0.00005830,-0.00005805,-0.00000942,0.00001109,-0.00020289,
 -0.00003873,0.00007208,0.00007074,0.00040220,0.00057001,0.00103944,-0.
 00072912,-0.00027311,-0.00001522,-0.00001962,-0.00000570,0.01341088,0.
 08518845,0.06868341,0.00041885,0.00034186,0.00028373,-0.00009637,-0.00
 011007,-0.00037908,0.00022125,-0.00008676,0.00021615,-0.00094367,0.000
 07393,-0.00092299,0.00327355,-0.00031071,-0.00493223,-0.00003422,0.000
 00804,-0.00037117,-0.00083145,0.00716731,-0.00439560,-0.10343680,0.078
 20010,-0.11154947,0.00181761,-0.00296472,0.00399055,0.00017643,-0.0003
 5177,0.00019193,-0.00008924,-0.00011827,-0.00001520,0.00000961,0.00014
 126,0.00017850,-0.00002890,0.00006103,-0.00005003,0.00098152,0.0001349
 8,-0.00102479,0.00039036,0.00104524,-0.00038498,0.00001357,0.00001216,
 -0.00000261,-0.00304280,-0.00068480,0.00208916,0.10134144,0.00007571,0
 .00014264,-0.00002618,-0.00011345,0.00003110,0.00012594,-0.00040330,-0
 .00011837,0.00024234,-0.00122373,-0.00574413,-0.00034328,-0.00052828,-
 0.00062786,-0.00276464,0.00013067,-0.00004176,-0.00015119,-0.00681562,
 0.01030780,-0.00894693,0.07759511,-0.14060522,0.10784551,0.01387933,-0
 .00462796,0.01780181,0.00001140,0.00010659,0.00003963,-0.00001214,0.00
 000521,0.00001962,0.00008756,-0.00001778,-0.00011634,-0.00004442,0.000
 04735,0.00006262,0.00139318,0.00012788,0.00100098,-0.00016178,0.000818
 07,-0.00026936,-0.00001216,0.00001750,0.00000288,0.00009810,0.00026550
 ,0.00112256,-0.08341735,0.13940250,-0.00019523,-0.00007398,-0.00017744
 ,-0.00004041,-0.00007753,0.00044269,0.00007309,0.00002624,-0.00017630,
 0.00061571,-0.00202261,0.00027143,-0.00373953,-0.00247276,-0.00188968,
 0.00004953,-0.00011268,0.00021357,-0.01017893,0.01756979,-0.00843040,-
 0.10803337,0.10392075,-0.18402550,0.00294160,-0.00307335,0.00249632,-0
 .00007772,0.00019791,-0.00007894,0.00001457,0.00001679,-0.00000570,-0.
 00007522,-0.00002151,0.00003797,-0.00001180,-0.00003694,0.00005846,-0.
 00037115,-0.00006162,0.00099899,-0.00078290,0.00074405,-0.00017746,-0.
 00000260,-0.00000288,0.00000262,0.00232967,-0.00015664,-0.00055598,0.1
 1762545,-0.11522507,0.19054476,-0.00062944,-0.00002952,-0.00057251,-0.
 00026716,0.00194735,-0.00108749,-0.00263399,-0.00155952,0.00053453,-0.
 01976769,-0.00849078,0.00484615,0.00002717,0.00212650,-0.00028162,-0.0
 0060880,-0.00019701,0.00009219,0.00045229,0.00063177,0.00106126,0.0028
 0229,-0.00092601,-0.00093478,-0.22736490,-0.07226733,0.07500979,-0.000
 25102,-0.00053658,0.00037636,-0.00001401,-0.00009817,-0.00001085,0.000
 21729,-0.00002717,-0.00006797,0.00036745,0.00001212,-0.00020340,0.0007
 3940,0.00057045,-0.00017130,0.00025566,-0.00005431,-0.00039572,0.00003
 039,-0.00002956,-0.00006363,-0.00020287,-0.00015907,0.00003284,-0.0002
 4187,-0.00059459,-0.00011331,0.25260413,-0.00031090,0.00011448,-0.0003
 9376,-0.00028588,-0.00001788,0.00022879,0.00090783,0.00019028,0.000900
 12,0.00748123,0.00251545,-0.00162073,-0.00015081,-0.00059905,0.0013999
 7,-0.00003401,-0.00033534,-0.00008099,0.00156413,-0.00264791,0.0014473
 7,-0.02786114,-0.01662337,0.00630802,-0.07709494,-0.06553975,0.0277294
 9,0.00038838,0.00002367,-0.00012659,0.00004451,0.00000938,-0.00000985,
 0.00010799,-0.00004294,0.00008187,-0.00015854,0.00014968,0.00018093,-0
 .00026964,0.00012295,-0.00024513,-0.00014422,-0.00001595,-0.00001103,-
 0.00009563,0.00002851,0.00005639,0.00159990,0.00011052,-0.00122005,0.0
 0099722,-0.00006456,-0.00005707,0.08156486,0.07744363,-0.00061402,-0.0
 0069812,-0.00131473,0.00101503,0.00164383,-0.00024630,-0.00110732,-0.0
 0052146,0.00048367,-0.01697785,-0.00777786,0.00359698,0.00080570,-0.00
 218627,0.00069380,-0.00081455,-0.00031255,0.00136096,-0.00325038,0.001
 53635,-0.00295500,0.00229125,0.00393961,0.00031833,0.07352494,0.024662
 43,-0.06940401,0.00029421,-0.00019344,-0.00019582,0.00003993,0.0000051
 1,-0.00005060,-0.00028737,0.00005973,0.00041171,-0.00001974,0.00015429
 ,0.00008658,0.00074619,0.00036831,0.00074055,0.00056934,0.00010082,-0.
 00052285,-0.00009449,0.00000622,0.00007370,0.00031931,-0.00000210,-0.0
 0025087,-0.00022741,0.00039217,0.00023195,-0.08081127,-0.03046039,0.07
 695727,0.00017219,-0.00005717,0.00029748,-0.00078976,-0.00060796,-0.00
 017820,-0.00053972,-0.00071565,-0.00208685,0.00233625,-0.01207251,-0.0
 1689557,-0.00332062,0.00233728,-0.00404891,0.00027383,0.00027872,-0.00
 010548,0.00180574,-0.00007325,0.00079019,-0.00243134,-0.00258766,0.000
 89961,-0.05073269,0.02534314,0.04287031,-0.00030479,0.00022313,0.00022
 790,0.00000833,0.00003973,0.00003866,-0.00025658,-0.00037507,0.0000609
 4,-0.00023337,0.00032757,-0.00015196,-0.00015134,0.00030494,0.00027702
 ,-0.00021030,-0.00114374,-0.00047214,0.00011922,0.00000346,-0.00003885
 ,0.00023514,-0.00020370,-0.00017271,-0.00004851,0.00002966,0.00007503,
 -0.00540813,0.01156086,0.02466801,0.05946512,-0.00030920,-0.00022474,-
 0.00049010,-0.00006260,0.00009617,-0.00032804,0.00009103,0.00052931,0.
 00072216,-0.00304809,0.00339980,0.00682666,0.00250450,-0.00049010,0.00
 087381,-0.00009823,-0.00024167,0.00030015,0.00064273,-0.00607179,0.000
 09618,0.00401185,-0.00937956,-0.02886539,0.02288435,-0.09435215,-0.100
 09404,0.00018733,-0.00006560,-0.00009482,0.00002010,0.00000798,-0.0000
 1131,-0.00031108,-0.00019724,0.00044216,-0.00004806,0.00005376,0.00014
 959,-0.00003680,-0.00006836,-0.00021058,0.00012251,0.00044175,-0.00016
 003,-0.00006328,0.00000938,0.00006764,-0.00197643,-0.00050105,-0.00039
 171,-0.00029755,0.00053764,0.00104313,-0.00172731,0.00499389,0.0094361
 4,-0.02253244,0.10142752,0.00005459,-0.00028015,-0.00036376,0.00072848
 ,0.00046025,0.00095519,0.00194203,0.00000046,-0.00085278,0.00498586,-0
 .00848533,-0.01354337,-0.00202529,-0.00046346,-0.00265836,0.00045065,-
 0.00013686,0.00064486,0.00007133,0.00177897,-0.00166584,-0.00101532,0.
 00188803,0.00542804,0.03969256,-0.10081831,-0.25310544,0.00020235,0.00
 052315,-0.00022774,0.00005695,0.00002585,-0.00003950,-0.00007529,0.000
 11628,0.00045590,-0.00058773,0.00044391,0.00053486,-0.00050931,0.00029
 945,-0.00023730,-0.00072706,-0.00099093,0.00007858,-0.00018458,0.00005
 023,0.00012557,0.00020481,0.00002119,0.00012790,-0.00004081,-0.0007566
 1,0.00001937,0.00295689,-0.00424192,-0.00989291,-0.04609657,0.11061799
 ,0.27418158,0.00045244,-0.00063154,0.00106146,0.00002719,-0.00212660,-
 0.00028139,-0.01976760,0.00849051,0.00484511,-0.00263405,0.00155958,0.
 00053440,-0.00026720,-0.00194746,-0.00108732,0.00280131,0.00092649,-0.
 00093461,-0.00062944,0.00002942,-0.00057246,-0.00060875,0.00019698,0.0
 0009212,-0.00025104,0.00053662,0.00037635,-0.22737024,0.07226946,0.075
 00254,-0.00020283,0.00015906,0.00003278,0.00025566,0.00005427,-0.00039
 573,0.00073938,-0.00057044,-0.00017126,0.00036747,-0.00001213,-0.00020
 342,0.00021730,0.00002717,-0.00006797,-0.00024185,0.00059457,-0.000113
 37,-0.00001402,0.00009817,-0.00001086,0.00003040,0.00002955,-0.0000636
 4,-0.00007473,0.00013469,-0.00005228,-0.00003145,0.00002142,-0.0001438
 9,0.25261009,-0.00156423,-0.00264815,-0.00144736,0.00015088,-0.0005990
 2,-0.00139983,-0.00748354,0.00251632,0.00162088,-0.00090798,0.00019021
 ,-0.00090015,0.00028600,-0.00001811,-0.00022879,0.02786180,-0.01662347
 ,-0.00630620,0.00031088,0.00011460,0.00039361,0.00003396,-0.00033533,0
 .00008114,-0.00038838,0.00002371,0.00012659,0.07709694,-0.06553990,-0.
 02772670,-0.00159987,0.00011061,0.00121993,0.00014427,-0.00001596,0.00
 001098,0.00026974,0.00012291,0.00024517,0.00015854,0.00014966,-0.00018
 095,-0.00010803,-0.00004296,-0.00008183,-0.00099724,-0.00006461,0.0000
 5707,-0.00004451,0.00000938,0.00000984,0.00009561,0.00002851,-0.000056
 39,-0.00013471,0.00012569,-0.00011887,-0.00005412,0.00005863,-0.000015
 71,-0.08156712,0.07744418,-0.00325018,-0.00153646,-0.00295475,0.000805
 49,0.00218648,0.00069374,-0.01697748,0.00777750,0.00359602,-0.00110726
 ,0.00052151,0.00048368,0.00101501,-0.00164387,-0.00024611,0.00228886,-
 0.00393807,0.00031924,-0.00061402,0.00069797,-0.00131479,-0.00081447,0
 .00031265,0.00136086,0.00029422,0.00019343,-0.00019584,0.07351714,-0.0
 2465972,-0.06939799,0.00031946,0.00000207,-0.00025097,0.00056937,-0.00
 010088,-0.00052284,0.00074618,-0.00036825,0.00074054,-0.00001975,-0.00
 015431,0.00008662,-0.00028737,-0.00005970,0.00041173,-0.00022731,-0.00
 039214,0.00023197,0.00003993,-0.00000512,-0.00005060,-0.00009450,-0.00
 000622,0.00007371,-0.00005228,0.00011885,-0.00008823,-0.00001725,0.000
 03395,-0.00003417,-0.08080315,0.03045706,0.07695035,0.00180577,0.00007
 356,0.00079020,-0.00332042,-0.00233776,-0.00404865,0.00233592,0.012070
 93,-0.01689638,-0.00053980,0.00071545,-0.00208693,-0.00078976,0.000607
 96,-0.00017827,-0.00243137,0.00258794,0.00089849,0.00017217,0.00005719
 ,0.00029746,0.00027383,-0.00027872,-0.00010544,-0.00030479,-0.00022311
 ,0.00022793,-0.05073212,-0.02533875,0.04287162,0.00023510,0.00020370,-
 0.00017275,-0.00021029,0.00114366,-0.00047227,-0.00015132,-0.00030491,
 0.00027709,-0.00023341,-0.00032760,-0.00015196,-0.00025664,0.00037509,
 0.00006093,-0.00004852,-0.00002968,0.00007507,0.00000833,-0.00003973,0
 .00003867,0.00011922,-0.00000346,-0.00003885,-0.00003145,0.00005412,-0
 .00001726,0.00004278,0.00002524,0.00005935,-0.00540803,-0.01155892,0.0
 2466934,0.05946483,-0.00064250,-0.00607203,-0.00009570,-0.00250476,-0.
 00049024,-0.00087418,0.00304862,0.00340041,-0.00682873,-0.00009088,0.0
 0052921,-0.00072234,0.00006262,0.00009612,0.00032818,-0.00401192,-0.00
 937698,0.02886669,0.00030925,-0.00022465,0.00049006,0.00009827,-0.0002
 4170,-0.00030008,-0.00018731,-0.00006564,0.00009481,-0.02288021,-0.094
 33520,0.10008064,0.00197641,-0.00050096,0.00039185,-0.00012260,0.00044
 189,0.00015998,0.00003676,-0.00006836,0.00021059,0.00004798,0.00005372
 ,-0.00014955,0.00031108,-0.00019731,-0.00044209,0.00029754,0.00053762,
 -0.00104316,-0.00002010,0.00000798,0.00001130,0.00006326,0.00000937,-0
 .00006762,-0.00002143,0.00005863,-0.00003396,-0.00002523,0.00003642,-0
 .00003647,0.00172733,0.00499310,-0.00943674,0.02252781,0.10140862,0.00
 007147,-0.00177853,-0.00166564,-0.00202516,0.00046318,-0.00265839,0.00
 498561,0.00848408,-0.01354363,0.00194200,-0.00000049,-0.00085269,0.000
 72848,-0.00046021,0.00095521,-0.00101493,-0.00188671,0.00542551,0.0000
 5458,0.00028014,-0.00036386,0.00045064,0.00013694,0.00064485,0.0002023
 7,-0.00052317,-0.00022770,0.03969347,0.10080490,-0.25312409,0.00020461
 ,-0.00002113,0.00012789,-0.00072706,0.00099090,0.00007845,-0.00050928,
 -0.00029949,-0.00023726,-0.00058771,-0.00044389,0.00053493,-0.00007530
 ,-0.00011623,0.00045587,-0.00004086,0.00075656,0.00001940,0.00005695,-
 0.00002585,-0.00003949,-0.00018459,-0.00005022,0.00012559,-0.00014389,
 0.00001570,-0.00003417,0.00005935,0.00003648,0.00006932,0.00295661,0.0
 0424052,-0.00989215,-0.04609737,-0.11060348,0.27420207\\0.00025327,0.0
 0051454,0.00074981,0.00145824,-0.00083298,-0.00065881,0.00609082,-0.00
 030423,-0.00486951,-0.00609053,-0.00030261,0.00486967,-0.00145917,-0.0
 0083421,0.00065805,0.00123150,0.00030537,-0.00051014,-0.00025313,0.000
 51530,-0.00074961,-0.00123080,0.00030484,0.00051031,-0.00062017,0.0002
 2840,0.00051571,0.00062040,0.00022856,-0.00051542,-0.00010742,0.000046
 10,0.00010836,-0.00004096,0.00001983,0.00004103,0.00001786,-0.00002957
 ,-0.00005168,-0.00001792,-0.00002970,0.00005172,0.00004105,0.00001997,
 -0.00004082,0.00007101,-0.00000094,-0.00000139,0.00010731,0.00004558,-
 0.00010849,-0.00007116,-0.00000059,0.00000106,-0.00015901,0.00004098,-
 0.00023403,0.00016309,0.00001222,0.00009732,0.00015883,0.00004102,0.00
 023400,-0.00016312,0.00001211,-0.00009715\\\@


 There was a great rattling of the words for the fewness of ideas.
                   -- Charles Baxter in Gryphon
 Job cpu time:       0 days  1 hours  3 minutes 56.2 seconds.
 Elapsed time:       0 days  0 hours  0 minutes 40.9 seconds.
 File lengths (MBytes):  RWF=    182 Int=      0 D2E=      0 Chk=     10 Scr=      1
 Normal termination of Gaussian 16 at Mon Jul 28 00:09:43 2025.
