 Entering Gaussian System, Link 0=g16
 Initial command:
 /home/hongchang/data/software/Gaussian/g16/l1.exe "/home/hongchang/data/software/Gaussian/g16/scratch/Gau-1394219.inp" -scrdir="/home/hongchang/data/software/Gaussian/g16/scratch/"
 Entering Link 1 = /home/hongchang/data/software/Gaussian/g16/l1.exe PID=   1394220.
  
 Copyright (c) 1988,1990,1992,1993,1995,1998,2003,2009,2016,
            Gaussian, Inc.  All Rights Reserved.
  
 This is part of the Gaussian(R) 16 program.  It is based on
 the Gaussian(R) 09 system (copyright 2009, Gaussian, Inc.),
 the Gaussian(R) 03 system (copyright 2003, Gaussian, Inc.),
 the Gaussian(R) 98 system (copyright 1998, Gaussian, Inc.),
 the Gaussian(R) 94 system (copyright 1995, Gaussian, Inc.),
 the Gaussian 92(TM) system (copyright 1992, Gaussian, Inc.),
 the Gaussian 90(TM) system (copyright 1990, Gaussian, Inc.),
 the Gaussian 88(TM) system (copyright 1988, Gaussian, Inc.),
 the Gaussian 86(TM) system (copyright 1986, Carnegie Mellon
 University), and the Gaussian 82(TM) system (copyright 1983,
 Carnegie Mellon University). Gaussian is a federally registered
 trademark of Gaussian, Inc.
  
 This software contains proprietary and confidential information,
 including trade secrets, belonging to Gaussian, Inc.
  
 This software is provided under written license and may be
 used, copied, transmitted, or stored only in accord with that
 written license.
  
 The following legend is applicable only to US Government
 contracts under FAR:
  
                    RESTRICTED RIGHTS LEGEND
  
 Use, reproduction and disclosure by the US Government is
 subject to restrictions as set forth in subparagraphs (a)
 and (c) of the Commercial Computer Software - Restricted
 Rights clause in FAR 52.227-19.
  
 Gaussian, Inc.
 340 Quinnipiac St., Bldg. 40, Wallingford CT 06492
  
  
 ---------------------------------------------------------------
 Warning -- This program may not be used in any manner that
 competes with the business of Gaussian, Inc. or will provide
 assistance to any competitor of Gaussian, Inc.  The licensee
 of this program is prohibited from giving any competitor of
 Gaussian, Inc. access to this program.  By using this program,
 the user acknowledges that Gaussian, Inc. is engaged in the
 business of creating and licensing software in the field of
 computational chemistry and represents and warrants to the
 licensee that it is not a competitor of Gaussian, Inc. and that
 it will not use this program in any manner prohibited above.
 ---------------------------------------------------------------
  

 Cite this work as:
 Gaussian 16, Revision A.03,
 M. J. Frisch, G. W. Trucks, H. B. Schlegel, G. E. Scuseria, 
 M. A. Robb, J. R. Cheeseman, G. Scalmani, V. Barone, 
 G. A. Petersson, H. Nakatsuji, X. Li, M. Caricato, A. V. Marenich, 
 J. Bloino, B. G. Janesko, R. Gomperts, B. Mennucci, H. P. Hratchian, 
 J. V. Ortiz, A. F. Izmaylov, J. L. Sonnenberg, D. Williams-Young, 
 F. Ding, F. Lipparini, F. Egidi, J. Goings, B. Peng, A. Petrone, 
 T. Henderson, D. Ranasinghe, V. G. Zakrzewski, J. Gao, N. Rega, 
 G. Zheng, W. Liang, M. Hada, M. Ehara, K. Toyota, R. Fukuda, 
 J. Hasegawa, M. Ishida, T. Nakajima, Y. Honda, O. Kitao, H. Nakai, 
 T. Vreven, K. Throssell, J. A. Montgomery, Jr., J. E. Peralta, 
 F. Ogliaro, M. J. Bearpark, J. J. Heyd, E. N. Brothers, K. N. Kudin, 
 V. N. Staroverov, T. A. Keith, R. Kobayashi, J. Normand, 
 K. Raghavachari, A. P. Rendell, J. C. Burant, S. S. Iyengar, 
 J. Tomasi, M. Cossi, J. M. Millam, M. Klene, C. Adamo, R. Cammi, 
 J. W. Ochterski, R. L. Martin, K. Morokuma, O. Farkas, 
 J. B. Foresman, and D. J. Fox, Gaussian, Inc., Wallingford CT, 2016.
 
 ******************************************
 Gaussian 16:  ES64L-G16RevA.03 25-Dec-2016
                28-Jul-2025 
 ******************************************
 %nprocshared=96
 Will use up to   96 processors via shared memory.
 %mem=600GB
 %chk=01_02_path2_5.chk
 -----------------------------------------------------------
 # freq b3lyp/6-311g(d,p) em=gd3bj scrf(solvent=Cis-Decalin)
 -----------------------------------------------------------
 1/10=4,30=1,38=1/1,3;
 2/12=2,17=6,18=5,40=1/2;
 3/5=4,6=6,7=101,11=2,25=1,30=1,70=2201,71=2,72=99,74=-5,124=41,140=1/1,2,3;
 4//1;
 5/5=2,38=5,53=99,98=1/2;
 8/6=4,10=90,11=11/1;
 11/6=1,8=1,9=11,15=111,16=1/1,2,10;
 10/6=1/2;
 6/7=2,8=2,9=2,10=2,28=1/1;
 7/8=1,10=1,25=1/1,2,3,16;
 1/10=4,30=1/3;
 99//99;
 -------------
 01_02_path2_5
 -------------
 Symbolic Z-matrix:
 Charge =  0 Multiplicity = 1
 C                    -1.35812  -1.15619   0.67215 
 C                    -0.70424  -0.11251   1.35468 
 C                    -0.7335    1.06768   0.51558 
 C                     0.73347   1.06764  -0.51567 
 C                     0.70422  -0.11264  -1.35466 
 C                    -1.90158  -0.68782  -0.49986 
 C                     1.35814  -1.15624  -0.67203 
 C                     1.90161  -0.68775   0.49991 
 C                     1.87259   0.81494   0.47794 
 C                    -1.8726    0.81487  -0.47803 
 H                    -1.35745  -2.19179   0.98836 
 H                    -0.25591  -0.17892   2.33405 
 H                    -0.69031   2.04089   0.99886 
 H                     0.69027   2.04079  -0.99906 
 H                     0.2559   -0.17915  -2.33402 
 H                    -2.43378  -1.27662  -1.2343 
 H                     1.35749  -2.19188  -0.98814 
 H                     2.43384  -1.27646   1.2344 
 H                     2.81358   1.19935   0.05765 
 H                     1.72812   1.28852   1.45057 
 H                    -2.81361   1.19929  -0.05778 
 H                    -1.72813   1.28836  -1.4507 
 

 GradGradGradGradGradGradGradGradGradGradGradGradGradGradGradGradGradGrad
 Berny optimization.
 Initialization pass.
 Trust Radius=3.00D-01 FncErr=1.00D-07 GrdErr=1.00D-07 EigMax=2.50D+02 EigMin=1.00D-04
 Number of steps in this run=      2 maximum allowed number of steps=      2.
 GradGradGradGradGradGradGradGradGradGradGradGradGradGradGradGradGradGrad

                          Input orientation:                          
 ---------------------------------------------------------------------
 Center     Atomic      Atomic             Coordinates (Angstroms)
 Number     Number       Type             X           Y           Z
 ---------------------------------------------------------------------
      1          6           0       -1.358117   -1.156190    0.672148
      2          6           0       -0.704241   -0.112506    1.354679
      3          6           0       -0.733497    1.067683    0.515575
      4          6           0        0.733470    1.067636   -0.515674
      5          6           0        0.704220   -0.112640   -1.354656
      6          6           0       -1.901576   -0.687822   -0.499855
      7          6           0        1.358138   -1.156242   -0.672031
      8          6           0        1.901613   -0.687745    0.499909
      9          6           0        1.872587    0.814943    0.477941
     10          6           0       -1.872598    0.814868   -0.478027
     11          1           0       -1.357453   -2.191791    0.988358
     12          1           0       -0.255914   -0.178916    2.334048
     13          1           0       -0.690309    2.040888    0.998861
     14          1           0        0.690266    2.040789   -0.999062
     15          1           0        0.255899   -0.179153   -2.334020
     16          1           0       -2.433780   -1.276620   -1.234295
     17          1           0        1.357493   -2.191875   -0.988138
     18          1           0        2.433843   -1.276457    1.234399
     19          1           0        2.813584    1.199352    0.057647
     20          1           0        1.728116    1.288520    1.450567
     21          1           0       -2.813610    1.199286   -0.057775
     22          1           0       -1.728132    1.288361   -1.450695
 ---------------------------------------------------------------------
                    Distance matrix (angstroms):
                    1          2          3          4          5
     1  C    0.000000
     2  C    1.408076   0.000000
     3  C    2.315227   1.448378   0.000000
     4  C    3.275830   2.637796   1.793172   0.000000
     5  C    3.074112   3.053565   2.637794   1.448378   0.000000
     6  C    1.374157   2.281205   2.340364   3.166283   2.802087
     7  C    3.030653   3.074141   3.275849   2.315230   1.408081
     8  C    3.297718   2.802143   3.166319   2.340369   2.281207
     9  C    3.789529   2.875565   2.618581   1.532551   2.363028
    10  C    2.339372   2.363026   1.532551   2.618568   2.875542
    11  H    1.082801   2.210046   3.352166   4.154267   3.750077
    12  H    2.220772   1.079153   2.255868   3.263999   3.812189
    13  H    3.282380   2.182637   1.087455   2.295252   3.481585
    14  H    4.148432   3.481584   2.295248   1.087455   2.182636
    15  H    3.549182   3.812192   3.264000   2.255868   1.079152
    16  H    2.192277   3.324042   3.383602   4.005424   3.349086
    17  H    3.347197   3.750109   4.154288   3.352169   2.210050
    18  H    3.835303   3.349152   4.005464   3.383607   3.324044
    19  H    4.830039   3.972198   3.578941   2.161694   2.857506
    20  H    4.013400   2.808635   2.642445   2.214546   3.298619
    21  H    2.863479   2.857492   2.161694   3.578936   3.972175
    22  H    3.258712   3.298622   2.214546   2.642436   2.808623
                    6          7          8          9         10
     6  C    0.000000
     7  C    3.297696   0.000000
     8  C    3.932401   1.374154   0.000000
     9  C    4.178360   2.339372   1.503129   0.000000
    10  C    1.503128   3.789534   4.178382   3.865267   0.000000
    11  H    2.184667   3.347191   3.622464   4.442312   3.384621
    12  H    3.316353   3.549203   2.877133   2.993895   3.392498
    13  H    3.340535   4.148452   3.796373   2.888379   2.254358
    14  H    3.796336   3.282379   3.340535   2.254356   2.888361
    15  H    2.877083   2.220775   3.316353   3.392496   2.993875
    16  H    1.081354   3.835267   4.706365   5.084406   2.293728
    17  H    3.622448   1.082802   2.184664   3.384622   4.442320
    18  H    4.706377   2.192275   1.081354   2.293729   5.084435
    19  H    5.109302   2.863490   2.142060   1.099951   4.732344
    20  H    4.569982   3.258706   2.199881   1.091397   4.112051
    21  H    2.142059   4.830042   5.109327   4.732352   1.099951
    22  H    2.199882   4.013411   4.570000   4.112048   1.091398
                   11         12         13         14         15
    11  H    0.000000
    12  H    2.660063   0.000000
    13  H    4.284946   2.626586   0.000000
    14  H    5.104677   4.114847   2.428515   0.000000
    15  H    4.206164   4.696042   4.114850   2.626581   0.000000
    16  H    2.633667   4.322167   4.362630   4.562916   3.106156
    17  H    3.358194   4.206187   5.104698   4.284945   2.660067
    18  H    3.907979   3.106222   4.562958   4.362629   4.322167
    19  H    5.455605   4.062443   3.724424   2.516571   3.763257
    20  H    4.674071   2.621122   2.572718   2.764728   4.317938
    21  H    3.835908   3.763252   2.516581   3.724419   4.062422
    22  H    4.265893   4.317940   2.764724   2.572697   2.621114
                   16         17         18         19         20
    16  H    0.000000
    17  H    3.907945   0.000000
    18  H    5.457857   2.633665   0.000000
    19  H    5.944273   3.835921   2.767414   0.000000
    20  H    5.577616   4.265887   2.669061   1.768168   0.000000
    21  H    2.767414   5.455607   5.944307   5.628378   4.786474
    22  H    2.669063   4.674086   5.577639   4.786460   4.512535
                   21         22
    21  H    0.000000
    22  H    1.768169   0.000000
 Stoichiometry    C10H12
 Framework group  C1[X(C10H12)]
 Deg. of freedom    60
 Full point group                 C1      NOp   1
 Largest Abelian subgroup         C1      NOp   1
 Largest concise Abelian subgroup C1      NOp   1
                         Standard orientation:                         
 ---------------------------------------------------------------------
 Center     Atomic      Atomic             Coordinates (Angstroms)
 Number     Number       Type             X           Y           Z
 ---------------------------------------------------------------------
      1          6           0        1.349281    1.168350    0.689686
      2          6           0        0.686595    0.124690    1.363704
      3          6           0        0.726738   -1.055526    0.525088
      4          6           0       -0.726718   -1.055507   -0.525118
      5          6           0       -0.686574    0.124742   -1.363687
      6          6           0        1.907907    0.699943   -0.475148
      7          6           0       -1.349295    1.168368   -0.689642
      8          6           0       -1.907940    0.699910    0.475158
      9          6           0       -1.878637   -0.802779    0.453617
     10          6           0        1.878643   -0.802746   -0.453650
     11          1           0        1.344516    2.203961    1.005828
     12          1           0        0.225592    0.191132    2.337168
     13          1           0        0.677276   -2.028716    1.007803
     14          1           0       -0.677245   -2.028675   -1.007874
     15          1           0       -0.225576    0.191223   -2.337151
     16          1           0        2.449603    1.288716   -1.202635
     17          1           0       -1.344543    2.203991   -1.005747
     18          1           0       -2.449658    1.288647    1.202658
     19          1           0       -2.814100   -1.187198    0.021154
     20          1           0       -1.746806   -1.276325    1.428051
     21          1           0        2.814119   -1.187154   -0.021205
     22          1           0        1.746815   -1.276270   -1.428097
 ---------------------------------------------------------------------
 Rotational constants (GHZ):           2.4103499           1.3520964           1.2842407
 Standard basis: 6-311G(d,p) (5D, 7F)
 There are   262 symmetry adapted cartesian basis functions of A   symmetry.
 There are   252 symmetry adapted basis functions of A   symmetry.
   252 basis functions,   416 primitive gaussians,   262 cartesian basis functions
    36 alpha electrons       36 beta electrons
       nuclear repulsion energy       523.8474373334 Hartrees.
 NAtoms=   22 NActive=   22 NUniq=   22 SFac= 1.00D+00 NAtFMM=   60 NAOKFM=F Big=F
 Integral buffers will be    131072 words long.
 Raffenetti 2 integral format.
 Two-electron integral symmetry is turned on.
 Nuclear repulsion after empirical dispersion term =      523.8017222578 Hartrees.
 Force inversion solution in PCM.
 ------------------------------------------------------------------------------
 Polarizable Continuum Model (PCM)
 =================================
 Model                : PCM.
 Atomic radii         : UFF (Universal Force Field).
 Polarization charges : Total charges.
 Charge compensation  : None.
 Solution method      : Matrix inversion.
 Cavity type          : Scaled VdW (van der Waals Surface) (Alpha=1.100).
 Cavity algorithm     : GePol (No added spheres)
                        Default sphere list used, NSphG=   22.
                        Lebedev-Laikov grids with approx.  5.0 points / Ang**2.
                        Smoothing algorithm: York/Karplus (Gamma=1.0000).
                        Polarization charges: spherical gaussians, with
                                              point-specific exponents (IZeta= 3).
                        Self-potential: point-specific (ISelfS= 7).
                        Self-field    : sphere-specific E.n sum rule (ISelfD= 2).
 1st derivatives      : Analytical E(r).r(x)/FMM algorithm (CHGder, D1EAlg=3).
                        Cavity 1st derivative terms included.
 2nd derivatives      : Analytical E(r).r(xy)/FMM algorithm (CHGder, D2EAlg=3).
                        Cavity 2nd derivative terms included.
 Solvent              : Cis-Decalin, Eps=   2.213900 Eps(inf)=   2.193361
 ------------------------------------------------------------------------------
 One-electron integrals computed using PRISM.
 NBasis=   252 RedAO= T EigKep=  5.16D-04  NBF=   252
 NBsUse=   252 1.00D-06 EigRej= -1.00D+00 NBFU=   252
 ExpMin= 1.03D-01 ExpMax= 4.56D+03 ExpMxC= 6.82D+02 IAcc=3 IRadAn=         5 AccDes= 0.00D+00
 Harris functional with IExCor=  402 and IRadAn=       5 diagonalized for initial guess.
 HarFok:  IExCor=  402 AccDes= 0.00D+00 IRadAn=         5 IDoV= 1 UseB2=F ITyADJ=14
 ICtDFT=  3500011 ScaDFX=  1.000000  1.000000  1.000000  1.000000
 FoFCou: FMM=F IPFlag=           0 FMFlag=      100000 FMFlg1=           0
         NFxFlg=           0 DoJE=T BraDBF=F KetDBF=T FulRan=T
         wScrn=  0.000000 ICntrl=       500 IOpCl=  0 I1Cent=   200000004 NGrid=           0
         NMat0=    1 NMatS0=      1 NMatT0=    0 NMatD0=    1 NMtDS0=    0 NMtDT0=    0
 Petite list used in FoFCou.
 Requested convergence on RMS density matrix=1.00D-08 within 128 cycles.
 Requested convergence on MAX density matrix=1.00D-06.
 Requested convergence on             energy=1.00D-06.
 No special actions if energy rises.
 Inv3:  Mode=1 IEnd=     7263408.
 Iteration    1 A*A^-1 deviation from unit magnitude is 3.77D-15 for   1545.
 Iteration    1 A*A^-1 deviation from orthogonality  is 2.03D-15 for   1547    993.
 Iteration    1 A^-1*A deviation from unit magnitude is 4.00D-15 for   1547.
 Iteration    1 A^-1*A deviation from orthogonality  is 1.55D-15 for   1097    894.
 Error on total polarization charges =  0.00617
 SCF Done:  E(RB3LYP) =  -388.320781767     A.U. after   12 cycles
            NFock= 12  Conv=0.67D-08     -V/T= 2.0049
 DoSCS=F DFT=T ScalE2(SS,OS)=  1.000000  1.000000
 Range of M.O.s used for correlation:     1   252
 NBasis=   252 NAE=    36 NBE=    36 NFC=     0 NFV=     0
 NROrb=    252 NOA=    36 NOB=    36 NVA=   216 NVB=   216
 Symmetrizing basis deriv contribution to polar:
 IMax=3 JMax=2 DiffMx= 0.00D+00
 G2DrvN: will do    23 centers at a time, making    1 passes.
 Calling FoFCou, ICntrl=  3107 FMM=F I1Cent=   0 AccDes= 0.00D+00.
 NEqPCM:  Using equilibrium solvation (IEInf=0, Eps=   2.2139, EpsInf=   2.1934)
 G2PCM: DoFxE=T DoFxN=T DoGrad=T DoDP/DQ/DG/TGxP=FFFF NFrqRd=   0 IEInf=0 SqF1=F DoCFld=F IF1Alg=4.
 End of G2Drv F.D. properties file   721 does not exist.
 End of G2Drv F.D. properties file   722 does not exist.
 End of G2Drv F.D. properties file   788 does not exist.
          IDoAtm=1111111111111111111111
 NEqPCM:  Using equilibrium solvation (IEInf=0, Eps=   2.2139, EpsInf=   2.1934)
          Differentiating once with respect to electric field.
                with respect to dipole field.
          Differentiating once with respect to nuclear coordinates.
 Keep R1 ints in memory in canonical form, NReq=612588626.
          There are    69 degrees of freedom in the 1st order CPHF.  IDoFFX=6 NUNeed=     3.
     66 vectors produced by pass  0 Test12= 1.13D-14 1.45D-09 XBig12= 3.87D+02 1.79D+01.
 AX will form    66 AO Fock derivatives at one time.
     66 vectors produced by pass  1 Test12= 1.13D-14 1.45D-09 XBig12= 7.56D+01 1.41D+00.
     66 vectors produced by pass  2 Test12= 1.13D-14 1.45D-09 XBig12= 6.90D-01 1.15D-01.
     66 vectors produced by pass  3 Test12= 1.13D-14 1.45D-09 XBig12= 1.42D-03 5.40D-03.
     66 vectors produced by pass  4 Test12= 1.13D-14 1.45D-09 XBig12= 2.13D-06 2.34D-04.
     48 vectors produced by pass  5 Test12= 1.13D-14 1.45D-09 XBig12= 2.35D-09 6.56D-06.
      7 vectors produced by pass  6 Test12= 1.13D-14 1.45D-09 XBig12= 2.58D-12 2.17D-07.
      3 vectors produced by pass  7 Test12= 1.13D-14 1.45D-09 XBig12= 2.79D-15 5.40D-09.
 InvSVY:  IOpt=1 It=  1 EMax= 1.42D-14
 Solved reduced A of dimension   388 with    69 vectors.
 Isotropic polarizability for W=    0.000000      135.85 Bohr**3.
 End of Minotr F.D. properties file   721 does not exist.
 End of Minotr F.D. properties file   722 does not exist.
 End of Minotr F.D. properties file   788 does not exist.

 **********************************************************************

            Population analysis using the SCF density.

 **********************************************************************

 Orbital symmetries:
       Occupied  (A) (A) (A) (A) (A) (A) (A) (A) (A) (A) (A) (A)
                 (A) (A) (A) (A) (A) (A) (A) (A) (A) (A) (A) (A)
                 (A) (A) (A) (A) (A) (A) (A) (A) (A) (A) (A) (A)
       Virtual   (A) (A) (A) (A) (A) (A) (A) (A) (A) (A) (A) (A)
                 (A) (A) (A) (A) (A) (A) (A) (A) (A) (A) (A) (A)
                 (A) (A) (A) (A) (A) (A) (A) (A) (A) (A) (A) (A)
                 (A) (A) (A) (A) (A) (A) (A) (A) (A) (A) (A) (A)
                 (A) (A) (A) (A) (A) (A) (A) (A) (A) (A) (A) (A)
                 (A) (A) (A) (A) (A) (A) (A) (A) (A) (A) (A) (A)
                 (A) (A) (A) (A) (A) (A) (A) (A) (A) (A) (A) (A)
                 (A) (A) (A) (A) (A) (A) (A) (A) (A) (A) (A) (A)
                 (A) (A) (A) (A) (A) (A) (A) (A) (A) (A) (A) (A)
                 (A) (A) (A) (A) (A) (A) (A) (A) (A) (A) (A) (A)
                 (A) (A) (A) (A) (A) (A) (A) (A) (A) (A) (A) (A)
                 (A) (A) (A) (A) (A) (A) (A) (A) (A) (A) (A) (A)
                 (A) (A) (A) (A) (A) (A) (A) (A) (A) (A) (A) (A)
                 (A) (A) (A) (A) (A) (A) (A) (A) (A) (A) (A) (A)
                 (A) (A) (A) (A) (A) (A) (A) (A) (A) (A) (A) (A)
                 (A) (A) (A) (A) (A) (A) (A) (A) (A) (A) (A) (A)
                 (A) (A) (A) (A) (A) (A) (A) (A) (A) (A) (A) (A)
                 (A) (A) (A) (A) (A) (A) (A) (A) (A) (A) (A) (A)
 The electronic state is 1-A.
 Alpha  occ. eigenvalues --  -10.18135 -10.18130 -10.16832 -10.16832 -10.16668
 Alpha  occ. eigenvalues --  -10.16668 -10.16224 -10.16222 -10.16098 -10.16097
 Alpha  occ. eigenvalues --   -0.87106  -0.83657  -0.72435  -0.70698  -0.69017
 Alpha  occ. eigenvalues --   -0.67835  -0.56554  -0.55024  -0.53168  -0.51520
 Alpha  occ. eigenvalues --   -0.51464  -0.49768  -0.45662  -0.42303  -0.39053
 Alpha  occ. eigenvalues --   -0.37944  -0.37626  -0.36978  -0.36466  -0.35705
 Alpha  occ. eigenvalues --   -0.35421  -0.33655  -0.32042  -0.28273  -0.25679
 Alpha  occ. eigenvalues --   -0.17657
 Alpha virt. eigenvalues --   -0.04708   0.02628   0.04559   0.04659   0.07439
 Alpha virt. eigenvalues --    0.07706   0.07775   0.09653   0.09754   0.10753
 Alpha virt. eigenvalues --    0.11009   0.12863   0.13648   0.14729   0.15117
 Alpha virt. eigenvalues --    0.18669   0.19121   0.19999   0.21695   0.22248
 Alpha virt. eigenvalues --    0.25901   0.27708   0.30450   0.31108   0.31795
 Alpha virt. eigenvalues --    0.32929   0.35310   0.37128   0.37834   0.37918
 Alpha virt. eigenvalues --    0.39103   0.40611   0.41998   0.42305   0.43187
 Alpha virt. eigenvalues --    0.44154   0.45399   0.45801   0.46742   0.49998
 Alpha virt. eigenvalues --    0.50707   0.51988   0.54949   0.54960   0.55713
 Alpha virt. eigenvalues --    0.56316   0.58654   0.59028   0.59524   0.59639
 Alpha virt. eigenvalues --    0.60724   0.60735   0.61991   0.63685   0.64179
 Alpha virt. eigenvalues --    0.64180   0.65771   0.66351   0.67005   0.68837
 Alpha virt. eigenvalues --    0.70199   0.70774   0.72204   0.74930   0.75225
 Alpha virt. eigenvalues --    0.77464   0.81340   0.81638   0.85623   0.86562
 Alpha virt. eigenvalues --    0.88312   0.90648   0.92396   0.97146   0.99645
 Alpha virt. eigenvalues --    1.05194   1.05572   1.07625   1.11096   1.14330
 Alpha virt. eigenvalues --    1.16247   1.20472   1.20800   1.22639   1.23166
 Alpha virt. eigenvalues --    1.26860   1.34681   1.36056   1.38605   1.42934
 Alpha virt. eigenvalues --    1.45842   1.48643   1.49920   1.49963   1.50246
 Alpha virt. eigenvalues --    1.52098   1.52947   1.54144   1.55639   1.57413
 Alpha virt. eigenvalues --    1.58193   1.59539   1.59820   1.60408   1.61596
 Alpha virt. eigenvalues --    1.64196   1.65551   1.67191   1.68182   1.71813
 Alpha virt. eigenvalues --    1.72281   1.73066   1.74520   1.76343   1.76970
 Alpha virt. eigenvalues --    1.77171   1.81103   1.82351   1.82885   1.83150
 Alpha virt. eigenvalues --    1.83749   1.85845   1.85939   1.87823   1.89328
 Alpha virt. eigenvalues --    1.92076   1.93371   1.93630   1.97024   1.98026
 Alpha virt. eigenvalues --    2.01019   2.01276   2.02409   2.06960   2.07777
 Alpha virt. eigenvalues --    2.13231   2.13488   2.16333   2.16442   2.18616
 Alpha virt. eigenvalues --    2.21604   2.21722   2.27074   2.28673   2.32698
 Alpha virt. eigenvalues --    2.35805   2.36747   2.38618   2.41098   2.42249
 Alpha virt. eigenvalues --    2.45405   2.45670   2.47534   2.49230   2.49303
 Alpha virt. eigenvalues --    2.52303   2.60233   2.61147   2.61217   2.62788
 Alpha virt. eigenvalues --    2.66482   2.67157   2.68171   2.68826   2.70826
 Alpha virt. eigenvalues --    2.71126   2.74494   2.75797   2.76170   2.78196
 Alpha virt. eigenvalues --    2.80358   2.84776   2.85301   2.88431   2.91048
 Alpha virt. eigenvalues --    2.92433   2.92541   2.97500   3.01106   3.03599
 Alpha virt. eigenvalues --    3.08256   3.09413   3.11342   3.17478   3.19227
 Alpha virt. eigenvalues --    3.29909   3.31657   3.41426   3.42462   3.43128
 Alpha virt. eigenvalues --    3.45129   3.54543   3.57551   3.67814   3.77397
 Alpha virt. eigenvalues --    3.86329   4.03831   4.04314   4.07343   4.09421
 Alpha virt. eigenvalues --    4.09919   4.14444   4.17703   4.20575   4.48008
 Alpha virt. eigenvalues --    4.49651  23.64002  23.76310  23.88027  23.88742
 Alpha virt. eigenvalues --   23.92551  24.01180  24.02476  24.07385  24.18058
 Alpha virt. eigenvalues --   24.19075
          Condensed to atoms (all electrons):
               1          2          3          4          5          6
     1  C    4.862012   0.481321  -0.076846  -0.008930   0.008491   0.533682
     2  C    0.481321   5.102494   0.438246  -0.068450  -0.067726  -0.096353
     3  C   -0.076846   0.438246   5.181165   0.209444  -0.068451  -0.082209
     4  C   -0.008930  -0.068450   0.209444   5.181165   0.438246  -0.020970
     5  C    0.008491  -0.067726  -0.068451   0.438246   5.102502   0.060021
     6  C    0.533682  -0.096353  -0.082209  -0.020970   0.060021   5.117424
     7  C   -0.018930   0.008492  -0.008929  -0.076845   0.481313  -0.012690
     8  C   -0.012689   0.060013  -0.020967  -0.082209  -0.096352  -0.004351
     9  C    0.000213  -0.014083  -0.051062   0.375661  -0.089459   0.000901
    10  C   -0.087148  -0.089458   0.375659  -0.051063  -0.014084   0.364090
    11  H    0.421920  -0.044308   0.006768  -0.000247   0.000596  -0.045534
    12  H   -0.035251   0.418095  -0.038654  -0.000887   0.000169   0.006635
    13  H    0.007450  -0.036277   0.406583  -0.027946   0.005795   0.006919
    14  H   -0.000330   0.005794  -0.027946   0.406584  -0.036277  -0.000305
    15  H   -0.000607   0.000169  -0.000887  -0.038654   0.418095   0.002213
    16  H   -0.038316   0.008549   0.005000   0.000369  -0.001738   0.416489
    17  H    0.001772   0.000596  -0.000247   0.006768  -0.044308   0.000214
    18  H    0.000180  -0.001738   0.000368   0.005000   0.008549   0.000057
    19  H   -0.000202   0.004150   0.007739  -0.032658   0.001064  -0.000291
    20  H    0.000872  -0.003864  -0.003228  -0.043042   0.008872   0.000094
    21  H   -0.001843   0.001064  -0.032658   0.007739   0.004150  -0.041870
    22  H    0.006076   0.008872  -0.043042  -0.003228  -0.003864  -0.038207
               7          8          9         10         11         12
     1  C   -0.018930  -0.012689   0.000213  -0.087148   0.421920  -0.035251
     2  C    0.008492   0.060013  -0.014083  -0.089458  -0.044308   0.418095
     3  C   -0.008929  -0.020967  -0.051062   0.375659   0.006768  -0.038654
     4  C   -0.076845  -0.082209   0.375661  -0.051063  -0.000247  -0.000887
     5  C    0.481313  -0.096352  -0.089459  -0.014084   0.000596   0.000169
     6  C   -0.012690  -0.004351   0.000901   0.364090  -0.045534   0.006635
     7  C    4.862009   0.533689  -0.087148   0.000213   0.001772  -0.000607
     8  C    0.533689   5.117416   0.364090   0.000901   0.000214   0.002214
     9  C   -0.087148   0.364090   4.900664   0.006188  -0.000071  -0.000110
    10  C    0.000213   0.000901   0.006188   4.900667   0.008235   0.006118
    11  H    0.001772   0.000214  -0.000071   0.008235   0.573111  -0.003349
    12  H   -0.000607   0.002214  -0.000110   0.006118  -0.003349   0.546107
    13  H   -0.000330  -0.000305  -0.003522  -0.028128  -0.000270  -0.003502
    14  H    0.007450   0.006919  -0.028128  -0.003522   0.000041  -0.000133
    15  H   -0.035250   0.006635   0.006118  -0.000110  -0.000049   0.000003
    16  H    0.000180   0.000057   0.000007  -0.036703  -0.004602  -0.000317
    17  H    0.421920  -0.045534   0.008236  -0.000071   0.000059  -0.000049
    18  H   -0.038316   0.416488  -0.036703   0.000007   0.000019   0.000333
    19  H   -0.001843  -0.041870   0.390042  -0.000306  -0.000003   0.000124
    20  H    0.006076  -0.038207   0.409777   0.000507  -0.000010  -0.000333
    21  H   -0.000202  -0.000291  -0.000306   0.390042  -0.000339  -0.000190
    22  H    0.000872   0.000094   0.000507   0.409777  -0.000260  -0.000311
              13         14         15         16         17         18
     1  C    0.007450  -0.000330  -0.000607  -0.038316   0.001772   0.000180
     2  C   -0.036277   0.005794   0.000169   0.008549   0.000596  -0.001738
     3  C    0.406583  -0.027946  -0.000887   0.005000  -0.000247   0.000368
     4  C   -0.027946   0.406584  -0.038654   0.000369   0.006768   0.005000
     5  C    0.005795  -0.036277   0.418095  -0.001738  -0.044308   0.008549
     6  C    0.006919  -0.000305   0.002213   0.416489   0.000214   0.000057
     7  C   -0.000330   0.007450  -0.035250   0.000180   0.421920  -0.038316
     8  C   -0.000305   0.006919   0.006635   0.000057  -0.045534   0.416488
     9  C   -0.003522  -0.028128   0.006118   0.000007   0.008236  -0.036703
    10  C   -0.028128  -0.003522  -0.000110  -0.036703  -0.000071   0.000007
    11  H   -0.000270   0.000041  -0.000049  -0.004602   0.000059   0.000019
    12  H   -0.003502  -0.000133   0.000003  -0.000317  -0.000049   0.000333
    13  H    0.554012  -0.004236  -0.000133  -0.000350   0.000041   0.000027
    14  H   -0.004236   0.554011  -0.003502   0.000027  -0.000270  -0.000350
    15  H   -0.000133  -0.003502   0.546105   0.000333  -0.003348  -0.000317
    16  H   -0.000350   0.000027   0.000333   0.558135   0.000019   0.000000
    17  H    0.000041  -0.000270  -0.003348   0.000019   0.573111  -0.004602
    18  H    0.000027  -0.000350  -0.000317   0.000000  -0.004602   0.558135
    19  H   -0.000387  -0.002813  -0.000190   0.000001  -0.000339   0.000415
    20  H    0.002698  -0.000781  -0.000311  -0.000005  -0.000260  -0.002168
    21  H   -0.002813  -0.000387   0.000124   0.000415  -0.000003   0.000001
    22  H   -0.000781   0.002698  -0.000333  -0.002168  -0.000010  -0.000005
              19         20         21         22
     1  C   -0.000202   0.000872  -0.001843   0.006076
     2  C    0.004150  -0.003864   0.001064   0.008872
     3  C    0.007739  -0.003228  -0.032658  -0.043042
     4  C   -0.032658  -0.043042   0.007739  -0.003228
     5  C    0.001064   0.008872   0.004150  -0.003864
     6  C   -0.000291   0.000094  -0.041870  -0.038207
     7  C   -0.001843   0.006076  -0.000202   0.000872
     8  C   -0.041870  -0.038207  -0.000291   0.000094
     9  C    0.390042   0.409777  -0.000306   0.000507
    10  C   -0.000306   0.000507   0.390042   0.409777
    11  H   -0.000003  -0.000010  -0.000339  -0.000260
    12  H    0.000124  -0.000333  -0.000190  -0.000311
    13  H   -0.000387   0.002698  -0.002813  -0.000781
    14  H   -0.002813  -0.000781  -0.000387   0.002698
    15  H   -0.000190  -0.000311   0.000124  -0.000333
    16  H    0.000001  -0.000005   0.000415  -0.002168
    17  H   -0.000339  -0.000260  -0.000003  -0.000010
    18  H    0.000415  -0.002168   0.000001  -0.000005
    19  H    0.583439  -0.032775  -0.000014  -0.000036
    20  H   -0.032775   0.581060  -0.000036  -0.000025
    21  H   -0.000014  -0.000036   0.583439  -0.032775
    22  H   -0.000036  -0.000025  -0.032775   0.581061
 Mulliken charges:
               1
     1  C   -0.042896
     2  C   -0.115598
     3  C   -0.175846
     4  C   -0.175846
     5  C   -0.115603
     6  C   -0.165959
     7  C   -0.042896
     8  C   -0.165957
     9  C   -0.151813
    10  C   -0.151812
    11  H    0.086304
    12  H    0.103894
    13  H    0.125454
    14  H    0.125456
    15  H    0.103896
    16  H    0.094621
    17  H    0.086304
    18  H    0.094621
    19  H    0.126751
    20  H    0.115089
    21  H    0.126751
    22  H    0.115089
 Sum of Mulliken charges =  -0.00000
 Mulliken charges with hydrogens summed into heavy atoms:
               1
     1  C    0.043407
     2  C   -0.011705
     3  C   -0.050392
     4  C   -0.050390
     5  C   -0.011708
     6  C   -0.071338
     7  C    0.043408
     8  C   -0.071336
     9  C    0.090027
    10  C    0.090027
 APT charges:
               1
     1  C   -0.018811
     2  C   -0.134119
     3  C    0.091185
     4  C    0.091175
     5  C   -0.134110
     6  C   -0.016335
     7  C   -0.018810
     8  C   -0.016344
     9  C    0.028105
    10  C    0.028104
    11  H    0.040130
    12  H    0.049211
    13  H   -0.010199
    14  H   -0.010198
    15  H    0.049209
    16  H    0.011896
    17  H    0.040129
    18  H    0.011901
    19  H   -0.040992
    20  H   -0.000067
    21  H   -0.040992
    22  H   -0.000067
 Sum of APT charges =   0.00000
 APT charges with hydrogens summed into heavy atoms:
               1
     1  C    0.021319
     2  C   -0.084908
     3  C    0.080987
     4  C    0.080977
     5  C   -0.084901
     6  C   -0.004438
     7  C    0.021319
     8  C   -0.004443
     9  C   -0.012954
    10  C   -0.012956
 Electronic spatial extent (au):  <R**2>=           1161.7409
 Charge=             -0.0000 electrons
 Dipole moment (field-independent basis, Debye):
    X=             -0.0000    Y=             -0.4862    Z=             -0.0000  Tot=              0.4862
 Quadrupole moment (field-independent basis, Debye-Ang):
   XX=            -62.6214   YY=            -57.3148   ZZ=            -59.8944
   XY=              0.0000   XZ=             -3.6242   YZ=              0.0000
 Traceless Quadrupole moment (field-independent basis, Debye-Ang):
   XX=             -2.6778   YY=              2.6287   ZZ=              0.0491
   XY=              0.0000   XZ=             -3.6242   YZ=              0.0000
 Octapole moment (field-independent basis, Debye-Ang**2):
  XXX=             -0.0002  YYY=              3.0702  ZZZ=             -0.0000  XYY=             -0.0000
  XXY=             -1.3544  XXZ=             -0.0000  XZZ=             -0.0001  YZZ=              0.7881
  YYZ=             -0.0001  XYZ=             -1.2712
 Hexadecapole moment (field-independent basis, Debye-Ang**3):
 XXXX=           -883.4576 YYYY=           -390.5284 ZZZZ=           -344.8700 XXXY=              0.0000
 XXXZ=            -24.2847 YYYX=             -0.0000 YYYZ=              0.0001 ZZZX=            -17.1659
 ZZZY=              0.0000 XXYY=           -206.9920 XXZZ=           -209.7828 YYZZ=           -122.5461
 XXYZ=              0.0003 YYXZ=             -0.4179 ZZXY=              0.0003
 N-N= 5.238017222578D+02 E-N=-1.948119642927D+03  KE= 3.864449987569D+02
  Exact polarizability: 172.101   0.000 116.820  -0.411  -0.000 118.635
 Approx polarizability: 289.510   0.001 166.275  12.474  -0.001 202.794
 D2PCM: PCM CHGder 2nd derivatives, FixD1E=F FixD2E=F DoIter=F DoCFld=F I1PDM=0
 Calling FoFJK, ICntrl=    100127 FMM=F ISym2X=0 I1Cent= 0 IOpClX= 0 NMat=1 NMatS=1 NMatT=0.
 Full mass-weighted force constant matrix:
 Low frequencies --- -176.2529  -61.5490   -0.0002    0.0004    0.0005   12.4250
 Low frequencies ---   32.7147   35.2235  160.1062
 ******    2 imaginary frequencies (negative Signs) ****** 
 Diagonal vibrational polarizability:
       12.3560487       2.8191528      17.1843778
 Harmonic frequencies (cm**-1), IR intensities (KM/Mole), Raman scattering
 activities (A**4/AMU), depolarization ratios for plane and unpolarized
 incident light, reduced masses (AMU), force constants (mDyne/A),
 and normal coordinates:
                      1                      2                      3
                      A                      A                      A
 Frequencies --   -176.2525               -61.1991               160.0930
 Red. masses --      8.8362                 4.9337                 3.2872
 Frc consts  --      0.1617                 0.0109                 0.0496
 IR Inten    --      1.3280                 2.3022                 0.0537
  Atom  AN      X      Y      Z        X      Y      Z        X      Y      Z
     1   6    -0.07  -0.03   0.06     0.02   0.06  -0.00     0.07   0.03  -0.13
     2   6    -0.19   0.07  -0.05    -0.21   0.09  -0.11    -0.02   0.14  -0.05
     3   6    -0.39  -0.01  -0.30    -0.09   0.07  -0.08    -0.07   0.06   0.04
     4   6     0.39  -0.01   0.30    -0.09  -0.07  -0.08     0.07   0.06  -0.04
     5   6     0.19   0.07   0.05    -0.21  -0.09  -0.11     0.02   0.14   0.05
     6   6    -0.22  -0.01  -0.07     0.25   0.03   0.15     0.09  -0.12  -0.06
     7   6     0.07  -0.03  -0.06     0.02  -0.06  -0.00    -0.07   0.03   0.13
     8   6     0.22  -0.01   0.07     0.25  -0.03   0.15    -0.09  -0.12   0.06
     9   6     0.10  -0.01   0.04     0.02  -0.03   0.03    -0.01  -0.11  -0.09
    10   6    -0.10  -0.01  -0.04     0.02   0.03   0.03     0.01  -0.11   0.09
    11   1     0.09  -0.05   0.13     0.05   0.06   0.01     0.13   0.07  -0.24
    12   1    -0.00  -0.04   0.04    -0.15   0.06  -0.09    -0.02   0.25  -0.05
    13   1    -0.02   0.07  -0.05    -0.10   0.09  -0.04    -0.15   0.11   0.14
    14   1     0.02   0.07   0.05    -0.10  -0.09  -0.04     0.15   0.11  -0.14
    15   1     0.00  -0.04  -0.04    -0.15  -0.06  -0.09     0.02   0.25   0.05
    16   1    -0.21   0.01  -0.05     0.40   0.00   0.24     0.16  -0.23  -0.09
    17   1    -0.09  -0.05  -0.13     0.05  -0.06   0.01    -0.13   0.07   0.24
    18   1     0.21   0.01   0.05     0.40  -0.00   0.24    -0.16  -0.23   0.09
    19   1     0.17   0.03  -0.14    -0.07   0.14   0.05     0.04  -0.12  -0.19
    20   1    -0.07  -0.04   0.05     0.03  -0.14  -0.02    -0.04  -0.20  -0.13
    21   1    -0.17   0.03   0.14    -0.07  -0.14   0.05    -0.04  -0.12   0.19
    22   1     0.07  -0.04  -0.05     0.03   0.14  -0.02     0.04  -0.20   0.13
                      4                      5                      6
                      A                      A                      A
 Frequencies --    198.5885               278.6178               360.9065
 Red. masses --      3.7329                 3.0984                 3.5923
 Frc consts  --      0.0867                 0.1417                 0.2757
 IR Inten    --      0.0934                 0.0495                 0.0038
  Atom  AN      X      Y      Z        X      Y      Z        X      Y      Z
     1   6     0.20  -0.03   0.12     0.16   0.06   0.06    -0.12   0.01  -0.10
     2   6     0.06   0.00   0.00     0.06   0.09   0.04    -0.07  -0.03  -0.14
     3   6    -0.07   0.03  -0.12    -0.05   0.09   0.03     0.02  -0.04  -0.14
     4   6     0.07   0.03   0.12    -0.05  -0.09   0.03    -0.02  -0.04   0.14
     5   6    -0.06   0.00  -0.00     0.06  -0.09   0.04     0.07  -0.03   0.14
     6   6     0.18   0.00   0.08    -0.01   0.06  -0.02     0.15   0.03   0.01
     7   6    -0.20  -0.03  -0.12     0.16  -0.06   0.06     0.12   0.01   0.10
     8   6    -0.18   0.00  -0.08    -0.01  -0.06  -0.02    -0.15   0.03  -0.01
     9   6     0.00   0.01   0.07    -0.15  -0.06  -0.10    -0.14   0.03   0.05
    10   6    -0.00   0.01  -0.07    -0.15   0.06  -0.10     0.14   0.03  -0.05
    11   1     0.37  -0.07   0.23     0.34   0.03   0.14    -0.27   0.02  -0.15
    12   1     0.06  -0.04  -0.00     0.16   0.08   0.09    -0.22  -0.02  -0.21
    13   1    -0.00   0.03  -0.09     0.01   0.10   0.07     0.14  -0.03  -0.11
    14   1     0.00   0.03   0.09     0.01  -0.10   0.07    -0.14  -0.03   0.11
    15   1    -0.06  -0.04   0.00     0.16  -0.08   0.09     0.22  -0.02   0.21
    16   1     0.28   0.01   0.16    -0.01   0.04  -0.04     0.23   0.06   0.10
    17   1    -0.37  -0.07  -0.23     0.34  -0.03   0.14     0.27   0.02   0.15
    18   1    -0.28   0.01  -0.16    -0.01  -0.04  -0.04    -0.23   0.06  -0.10
    19   1     0.06  -0.16   0.08    -0.12   0.04  -0.26    -0.07  -0.02  -0.06
    20   1     0.04   0.12   0.12    -0.32  -0.13  -0.11    -0.26   0.08   0.09
    21   1    -0.06  -0.16  -0.08    -0.12  -0.04  -0.26     0.07  -0.02   0.06
    22   1    -0.04   0.12  -0.12    -0.32   0.13  -0.11     0.26   0.08  -0.09
                      7                      8                      9
                      A                      A                      A
 Frequencies --    424.2299               440.6787               572.0313
 Red. masses --      1.9380                 1.9517                 3.0294
 Frc consts  --      0.2055                 0.2233                 0.5840
 IR Inten    --      0.1278                 1.0948                 1.6442
  Atom  AN      X      Y      Z        X      Y      Z        X      Y      Z
     1   6    -0.06   0.01  -0.01     0.09  -0.01   0.05    -0.13   0.05  -0.06
     2   6    -0.09   0.02  -0.01    -0.01   0.01  -0.03     0.17  -0.04   0.11
     3   6     0.00   0.01   0.05    -0.08   0.03  -0.08    -0.11   0.03  -0.05
     4   6    -0.00   0.01  -0.05    -0.08  -0.03  -0.08     0.11   0.03   0.05
     5   6     0.09   0.02   0.01    -0.01  -0.01  -0.03    -0.17  -0.04  -0.11
     6   6     0.04  -0.02   0.05    -0.07   0.02  -0.06     0.07  -0.01   0.07
     7   6     0.06   0.01   0.01     0.09   0.01   0.05     0.13   0.05   0.06
     8   6    -0.04  -0.02  -0.05    -0.07  -0.02  -0.06    -0.07  -0.01  -0.07
     9   6     0.12  -0.02   0.08     0.04  -0.02   0.08     0.04  -0.02  -0.02
    10   6    -0.12  -0.02  -0.08     0.04   0.02   0.08    -0.04  -0.02   0.02
    11   1    -0.08   0.02  -0.06     0.24  -0.04   0.16    -0.32   0.08  -0.18
    12   1    -0.20   0.08  -0.07    -0.06   0.02  -0.06     0.37  -0.09   0.21
    13   1    -0.05   0.01   0.02    -0.11   0.03  -0.07    -0.09   0.01  -0.08
    14   1     0.05   0.01  -0.02    -0.11  -0.03  -0.07     0.09   0.01   0.08
    15   1     0.20   0.08   0.07    -0.06  -0.02  -0.06    -0.37  -0.09  -0.21
    16   1     0.09  -0.03   0.09    -0.06   0.01  -0.06    -0.01  -0.02   0.01
    17   1     0.08   0.02   0.06     0.24   0.04   0.16     0.32   0.08   0.18
    18   1    -0.09  -0.03  -0.09    -0.06  -0.01  -0.06     0.01  -0.02  -0.01
    19   1     0.08  -0.22   0.36    -0.02  -0.22   0.39     0.11  -0.18  -0.04
    20   1     0.40   0.14   0.12     0.33   0.15   0.12     0.06   0.09   0.03
    21   1    -0.08  -0.22  -0.36    -0.02   0.22   0.39    -0.11  -0.18   0.04
    22   1    -0.40   0.14  -0.12     0.33  -0.15   0.12    -0.06   0.09  -0.03
                     10                     11                     12
                      A                      A                      A
 Frequencies --    605.6840               706.1558               710.8695
 Red. masses --      2.1136                 1.2368                 1.2215
 Frc consts  --      0.4569                 0.3634                 0.3637
 IR Inten    --      1.1077                 2.2892                57.9150
  Atom  AN      X      Y      Z        X      Y      Z        X      Y      Z
     1   6    -0.06   0.05  -0.06     0.04   0.01   0.04    -0.04  -0.03  -0.03
     2   6     0.12  -0.03   0.04     0.01   0.02   0.02    -0.01  -0.01   0.00
     3   6    -0.11   0.02  -0.06    -0.00   0.02  -0.02     0.02  -0.01   0.03
     4   6    -0.11  -0.02  -0.06     0.00   0.02   0.02     0.02   0.01   0.03
     5   6     0.12   0.03   0.04    -0.01   0.02  -0.02    -0.01   0.01   0.00
     6   6     0.06   0.02   0.02     0.01  -0.03   0.04    -0.02   0.02  -0.05
     7   6    -0.06  -0.05  -0.06    -0.04   0.01  -0.04    -0.04   0.03  -0.03
     8   6     0.06  -0.02   0.02    -0.01  -0.03  -0.04    -0.02  -0.02  -0.05
     9   6    -0.04  -0.01   0.04    -0.06  -0.03   0.01    -0.03  -0.02  -0.00
    10   6    -0.04   0.01   0.04     0.06  -0.03  -0.01    -0.03   0.02  -0.00
    11   1    -0.13   0.06  -0.08    -0.17   0.06  -0.12     0.20  -0.08   0.13
    12   1     0.52  -0.14   0.24    -0.24   0.06  -0.10     0.12  -0.01   0.07
    13   1    -0.09   0.01  -0.08    -0.02   0.02  -0.00     0.05  -0.03   0.00
    14   1    -0.09  -0.01  -0.08     0.02   0.02   0.00     0.05   0.03   0.00
    15   1     0.52   0.14   0.24     0.24   0.06   0.10     0.12   0.01   0.07
    16   1     0.03  -0.01  -0.02    -0.50   0.05  -0.29     0.53  -0.04   0.31
    17   1    -0.13  -0.06  -0.08     0.17   0.06   0.12     0.20   0.08   0.13
    18   1     0.03   0.01  -0.02     0.50   0.05   0.29     0.53   0.04   0.31
    19   1    -0.13   0.03   0.19    -0.04  -0.13   0.07     0.01  -0.14   0.03
    20   1     0.10  -0.03   0.01     0.01   0.07   0.05     0.01   0.09   0.05
    21   1    -0.13  -0.03   0.19     0.04  -0.13  -0.07     0.01   0.14   0.03
    22   1     0.10   0.03   0.01    -0.01   0.07  -0.05     0.01  -0.09   0.05
                     13                     14                     15
                      A                      A                      A
 Frequencies --    721.5472               742.8496               795.4367
 Red. masses --      1.4311                 1.4785                 3.3078
 Frc consts  --      0.4390                 0.4807                 1.2331
 IR Inten    --     63.9715                 0.1185                 0.0333
  Atom  AN      X      Y      Z        X      Y      Z        X      Y      Z
     1   6     0.01  -0.02   0.00    -0.01   0.03   0.02     0.05   0.07  -0.02
     2   6    -0.12   0.02  -0.03    -0.08   0.05  -0.03     0.00  -0.04  -0.16
     3   6     0.04   0.01   0.01     0.04  -0.01   0.00    -0.03  -0.14   0.03
     4   6     0.04  -0.01   0.01    -0.04  -0.01  -0.00     0.03  -0.14  -0.03
     5   6    -0.12  -0.02  -0.03     0.08   0.05   0.03    -0.00  -0.04   0.16
     6   6    -0.02  -0.02   0.01     0.00  -0.03   0.04     0.08   0.07   0.02
     7   6     0.01   0.02   0.00     0.01   0.03  -0.02    -0.05   0.07   0.02
     8   6    -0.02   0.02   0.01    -0.00  -0.03  -0.04    -0.08   0.07  -0.02
     9   6     0.04   0.02  -0.01    -0.07  -0.04   0.02     0.14   0.06  -0.10
    10   6     0.04  -0.02  -0.01     0.07  -0.04  -0.02    -0.14   0.06   0.10
    11   1     0.15  -0.03   0.04     0.08   0.03   0.01    -0.10   0.03   0.11
    12   1     0.50  -0.24   0.28     0.52  -0.19   0.27     0.22  -0.08  -0.06
    13   1     0.06   0.04   0.08     0.11   0.05   0.13     0.09  -0.10   0.15
    14   1     0.06  -0.04   0.08    -0.11   0.05  -0.13    -0.09  -0.10  -0.15
    15   1     0.50   0.24   0.28    -0.52  -0.19  -0.27    -0.22  -0.08   0.06
    16   1    -0.20   0.02  -0.09    -0.11   0.01  -0.02    -0.28  -0.06  -0.35
    17   1     0.15   0.03   0.04    -0.08   0.03  -0.01     0.10   0.03  -0.11
    18   1    -0.20  -0.02  -0.09     0.11   0.01   0.02     0.28  -0.07   0.35
    19   1     0.06  -0.01  -0.04    -0.09  -0.10   0.13     0.17   0.01  -0.14
    20   1     0.02   0.04  -0.00     0.02   0.06   0.06     0.06   0.12  -0.06
    21   1     0.06   0.01  -0.04     0.09  -0.10  -0.13    -0.17   0.01   0.14
    22   1     0.02  -0.04  -0.00    -0.02   0.06  -0.06    -0.06   0.12   0.06
                     16                     17                     18
                      A                      A                      A
 Frequencies --    814.4104               830.1067               837.1657
 Red. masses --      4.1036                 3.7506                 4.9599
 Frc consts  --      1.6036                 1.5227                 2.0481
 IR Inten    --     11.7275                 2.3028                36.2460
  Atom  AN      X      Y      Z        X      Y      Z        X      Y      Z
     1   6    -0.07   0.15   0.08    -0.01   0.20   0.06    -0.04  -0.17  -0.03
     2   6     0.07   0.08   0.00     0.13   0.05  -0.08    -0.05   0.05   0.26
     3   6     0.03   0.08  -0.12     0.04  -0.10  -0.06    -0.07   0.19  -0.04
     4   6     0.03  -0.08  -0.12    -0.04  -0.10   0.06    -0.07  -0.19  -0.04
     5   6     0.07  -0.08   0.00    -0.13   0.05   0.08    -0.05  -0.05   0.26
     6   6    -0.14  -0.11   0.10    -0.14  -0.03   0.09     0.04  -0.06  -0.06
     7   6    -0.07  -0.15   0.08     0.01   0.20  -0.06    -0.04   0.17  -0.03
     8   6    -0.14   0.11   0.10     0.14  -0.03  -0.09     0.04   0.06  -0.06
     9   6     0.07   0.15  -0.07    -0.01  -0.12  -0.01     0.12  -0.04  -0.12
    10   6     0.07  -0.15  -0.07     0.01  -0.12   0.01     0.12   0.04  -0.12
    11   1     0.20   0.16   0.04     0.05   0.19   0.09     0.05  -0.09  -0.27
    12   1    -0.04  -0.12  -0.04    -0.22   0.04  -0.24    -0.17   0.20   0.19
    13   1    -0.09   0.17   0.03     0.08  -0.00   0.15     0.00   0.11  -0.17
    14   1    -0.09  -0.17   0.03    -0.08  -0.00  -0.15     0.00  -0.11  -0.17
    15   1    -0.04   0.12  -0.04     0.22   0.04   0.24    -0.17  -0.20   0.19
    16   1     0.22  -0.15   0.33     0.26  -0.20   0.24    -0.02   0.20   0.11
    17   1     0.20  -0.16   0.04    -0.05   0.19  -0.09     0.05   0.09  -0.27
    18   1     0.22   0.15   0.33    -0.26  -0.20  -0.24    -0.02  -0.20   0.11
    19   1     0.07   0.15  -0.08    -0.09  -0.05   0.11     0.02   0.02   0.04
    20   1     0.08   0.02  -0.13    -0.02   0.03   0.07     0.15   0.06  -0.08
    21   1     0.07  -0.15  -0.08     0.09  -0.05  -0.11     0.02  -0.02   0.04
    22   1     0.08  -0.02  -0.13     0.02   0.03  -0.07     0.15  -0.06  -0.08
                     19                     20                     21
                      A                      A                      A
 Frequencies --    894.7254               926.6176               935.1654
 Red. masses --      2.2328                 2.0328                 1.8391
 Frc consts  --      1.0531                 1.0284                 0.9476
 IR Inten    --     11.2173                17.3493                 0.4698
  Atom  AN      X      Y      Z        X      Y      Z        X      Y      Z
     1   6    -0.01   0.03   0.02    -0.01   0.00  -0.01    -0.00  -0.00  -0.01
     2   6    -0.02  -0.04  -0.06     0.02  -0.00  -0.01    -0.01   0.05   0.07
     3   6     0.11   0.14  -0.06    -0.10  -0.04   0.05     0.03  -0.05  -0.02
     4   6    -0.11   0.14   0.06    -0.10   0.04   0.05    -0.03  -0.05   0.02
     5   6     0.02  -0.04   0.06     0.02   0.00  -0.01     0.01   0.05  -0.07
     6   6    -0.00  -0.05   0.04    -0.01   0.10  -0.04     0.00  -0.11   0.05
     7   6     0.01   0.03  -0.02    -0.01  -0.00  -0.01     0.00  -0.00   0.01
     8   6     0.00  -0.05  -0.04    -0.01  -0.10  -0.04    -0.00  -0.11  -0.05
     9   6     0.10  -0.03   0.02     0.12   0.07  -0.00     0.05   0.09   0.02
    10   6    -0.10  -0.03  -0.02     0.12  -0.07  -0.00    -0.05   0.09  -0.02
    11   1     0.02   0.03  -0.00     0.01  -0.05   0.19     0.13   0.06  -0.21
    12   1    -0.02  -0.39  -0.04     0.07   0.14   0.01    -0.03   0.14   0.06
    13   1    -0.06   0.09  -0.20    -0.40   0.02   0.15     0.45  -0.09  -0.05
    14   1     0.06   0.09   0.20    -0.40  -0.02   0.15    -0.45  -0.09   0.05
    15   1     0.02  -0.39   0.04     0.07  -0.14   0.01     0.03   0.14  -0.06
    16   1    -0.10  -0.08  -0.05     0.02   0.24   0.08    -0.02  -0.21  -0.05
    17   1    -0.02   0.03   0.00     0.01   0.05   0.19    -0.13   0.06   0.21
    18   1     0.10  -0.08   0.05     0.02  -0.24   0.08     0.02  -0.21   0.05
    19   1     0.21   0.03  -0.31     0.19   0.16  -0.25     0.07   0.18  -0.12
    20   1    -0.12  -0.24  -0.06    -0.12  -0.05  -0.03    -0.19   0.13   0.07
    21   1    -0.21   0.03   0.31     0.19  -0.16  -0.25    -0.07   0.18   0.12
    22   1     0.12  -0.24   0.06    -0.12   0.05  -0.03     0.19   0.13  -0.07
                     22                     23                     24
                      A                      A                      A
 Frequencies --    950.4848               954.7570               968.3580
 Red. masses --      1.3661                 1.3691                 1.6151
 Frc consts  --      0.7272                 0.7353                 0.8923
 IR Inten    --      1.6544                11.5362                13.6802
  Atom  AN      X      Y      Z        X      Y      Z        X      Y      Z
     1   6    -0.10   0.02  -0.04    -0.10   0.01  -0.04     0.00  -0.01   0.04
     2   6     0.02   0.00   0.01     0.03  -0.01   0.00     0.00   0.00  -0.02
     3   6    -0.01  -0.01   0.02     0.01   0.00   0.01     0.02   0.04   0.02
     4   6     0.01  -0.01  -0.02     0.01  -0.00   0.01     0.02  -0.04   0.02
     5   6    -0.02   0.00  -0.01     0.03   0.01   0.00     0.00  -0.00  -0.02
     6   6     0.04   0.01   0.02     0.06   0.00   0.02     0.04   0.07  -0.01
     7   6     0.10   0.02   0.04    -0.10  -0.01  -0.04     0.00   0.01   0.04
     8   6    -0.04   0.01  -0.02     0.06  -0.00   0.02     0.04  -0.07  -0.01
     9   6    -0.01  -0.02   0.03    -0.01   0.01  -0.02    -0.05   0.09  -0.07
    10   6     0.01  -0.02  -0.03    -0.01  -0.01  -0.02    -0.05  -0.09  -0.07
    11   1     0.51  -0.10   0.34     0.47  -0.11   0.35    -0.28  -0.01   0.04
    12   1    -0.09   0.08  -0.05    -0.12   0.06  -0.07    -0.01  -0.09  -0.03
    13   1     0.01   0.02   0.08     0.08   0.01   0.05     0.11   0.10   0.16
    14   1    -0.01   0.02  -0.08     0.08  -0.01   0.05     0.11  -0.10   0.16
    15   1     0.09   0.08   0.05    -0.12  -0.06  -0.07    -0.01   0.09  -0.03
    16   1    -0.22   0.09  -0.10    -0.23   0.06  -0.14    -0.02   0.27   0.10
    17   1    -0.51  -0.10  -0.34     0.47   0.11   0.35    -0.28   0.01   0.04
    18   1     0.22   0.09   0.10    -0.23  -0.06  -0.14    -0.02  -0.27   0.10
    19   1     0.02  -0.00  -0.04    -0.06   0.02   0.08    -0.15   0.03   0.23
    20   1    -0.06  -0.07   0.02     0.05   0.06  -0.00     0.09   0.40   0.06
    21   1    -0.02  -0.00   0.04    -0.06  -0.02   0.08    -0.15  -0.03   0.23
    22   1     0.06  -0.07  -0.02     0.05  -0.06  -0.00     0.09  -0.40   0.06
                     25                     26                     27
                      A                      A                      A
 Frequencies --    981.0427               984.3635              1017.1252
 Red. masses --      1.9803                 1.7889                 1.4316
 Frc consts  --      1.1229                 1.0213                 0.8726
 IR Inten    --     33.6154                 0.0265                 0.0373
  Atom  AN      X      Y      Z        X      Y      Z        X      Y      Z
     1   6    -0.02  -0.03   0.00    -0.01  -0.01  -0.04     0.01   0.01  -0.02
     2   6     0.00  -0.03  -0.00     0.00  -0.04  -0.02     0.00  -0.03  -0.04
     3   6     0.05   0.12  -0.07     0.02   0.05  -0.05    -0.05   0.00   0.06
     4   6     0.05  -0.12  -0.07    -0.02   0.05   0.05     0.05   0.00  -0.06
     5   6     0.00   0.03  -0.00    -0.00  -0.04   0.02    -0.00  -0.03   0.04
     6   6    -0.00   0.03  -0.06    -0.04  -0.05  -0.01    -0.02  -0.05   0.05
     7   6    -0.02   0.03   0.00     0.01  -0.01   0.04    -0.01   0.01   0.02
     8   6    -0.00  -0.03  -0.06     0.04  -0.05   0.01     0.02  -0.05  -0.05
     9   6     0.00   0.02   0.13    -0.04   0.07  -0.12    -0.01   0.05   0.06
    10   6     0.00  -0.02   0.13     0.04   0.07   0.12     0.01   0.05  -0.06
    11   1    -0.02  -0.07   0.14     0.24  -0.05   0.09     0.06   0.03  -0.09
    12   1    -0.05  -0.20  -0.02    -0.05  -0.13  -0.04     0.02  -0.11  -0.03
    13   1     0.10   0.11  -0.10    -0.05  -0.00  -0.17    -0.48   0.03   0.07
    14   1     0.10  -0.11  -0.10     0.05  -0.00   0.17     0.48   0.03  -0.07
    15   1    -0.05   0.21  -0.02     0.05  -0.13   0.04    -0.02  -0.11   0.03
    16   1     0.03   0.00  -0.06     0.04  -0.27  -0.12    -0.01  -0.13  -0.01
    17   1    -0.02   0.07   0.14    -0.24  -0.05  -0.09    -0.06   0.03   0.09
    18   1     0.03  -0.00  -0.06    -0.04  -0.27   0.12     0.01  -0.13   0.01
    19   1    -0.02   0.33  -0.11    -0.10  -0.14   0.22    -0.08   0.25   0.02
    20   1    -0.44   0.03   0.20     0.27   0.33  -0.04    -0.26   0.19   0.17
    21   1    -0.02  -0.33  -0.11     0.10  -0.14  -0.22     0.08   0.25  -0.02
    22   1    -0.44  -0.03   0.20    -0.27   0.33   0.04     0.26   0.19  -0.17
                     28                     29                     30
                      A                      A                      A
 Frequencies --   1042.3764              1083.3278              1087.0089
 Red. masses --      1.6558                 1.1948                 1.5152
 Frc consts  --      1.0600                 0.8262                 1.0549
 IR Inten    --     26.0273                 7.1206                 0.2803
  Atom  AN      X      Y      Z        X      Y      Z        X      Y      Z
     1   6    -0.02  -0.08   0.01     0.01   0.04  -0.03    -0.03  -0.08   0.03
     2   6     0.05  -0.02  -0.08    -0.00  -0.06   0.02     0.05   0.02  -0.06
     3   6    -0.04   0.07   0.03    -0.02   0.02   0.03     0.01   0.06   0.01
     4   6    -0.04  -0.07   0.03    -0.02  -0.02   0.03    -0.01   0.06  -0.01
     5   6     0.05   0.02  -0.08    -0.00   0.06   0.02    -0.05   0.02   0.06
     6   6    -0.01  -0.05   0.01     0.02   0.01  -0.00    -0.02  -0.05   0.01
     7   6    -0.02   0.08   0.01     0.01  -0.04  -0.03     0.03  -0.08  -0.03
     8   6    -0.01   0.05   0.01     0.02  -0.01  -0.00     0.02  -0.05  -0.01
     9   6     0.02  -0.06  -0.01    -0.00  -0.01  -0.01     0.00   0.02   0.01
    10   6     0.02   0.06  -0.01    -0.00   0.01  -0.01    -0.00   0.02  -0.01
    11   1    -0.16  -0.12   0.14     0.18   0.10  -0.23    -0.30  -0.18   0.34
    12   1     0.03  -0.06  -0.09    -0.21  -0.48  -0.04     0.10   0.25  -0.07
    13   1     0.10   0.28   0.47    -0.17   0.10   0.17     0.12   0.19   0.28
    14   1     0.10  -0.28   0.47    -0.17  -0.10   0.17    -0.12   0.19  -0.28
    15   1     0.03   0.06  -0.09    -0.21   0.48  -0.04    -0.10   0.25   0.07
    16   1     0.03  -0.10   0.01     0.00   0.01  -0.02     0.02  -0.12  -0.01
    17   1    -0.16   0.12   0.14     0.18  -0.10  -0.23     0.30  -0.18  -0.34
    18   1     0.03   0.10   0.01     0.00  -0.01  -0.02    -0.02  -0.12   0.01
    19   1    -0.01  -0.01   0.01     0.10  -0.19  -0.07     0.04  -0.01  -0.05
    20   1     0.10  -0.23  -0.10    -0.01   0.07   0.03    -0.06   0.10   0.05
    21   1    -0.01   0.01   0.01     0.10   0.19  -0.07    -0.04  -0.01   0.05
    22   1     0.10   0.23  -0.10    -0.01  -0.07   0.03     0.06   0.10  -0.05
                     31                     32                     33
                      A                      A                      A
 Frequencies --   1098.4302              1109.3695              1116.1338
 Red. masses --      1.1073                 1.2212                 1.3723
 Frc consts  --      0.7871                 0.8855                 1.0073
 IR Inten    --      4.5099                 4.9177                 1.4774
  Atom  AN      X      Y      Z        X      Y      Z        X      Y      Z
     1   6     0.01  -0.02  -0.02     0.02  -0.03  -0.04     0.01  -0.05  -0.03
     2   6     0.02  -0.03  -0.01     0.02  -0.00  -0.04     0.02   0.02  -0.07
     3   6    -0.03   0.02   0.01    -0.01  -0.02  -0.00     0.02  -0.00  -0.01
     4   6     0.03   0.02  -0.01    -0.01   0.02  -0.00    -0.02  -0.00   0.01
     5   6    -0.02  -0.03   0.01     0.02   0.00  -0.04    -0.02   0.02   0.07
     6   6    -0.01  -0.00   0.00    -0.04  -0.00   0.04    -0.05  -0.02   0.06
     7   6    -0.01  -0.02   0.02     0.02   0.03  -0.04    -0.01  -0.05   0.03
     8   6     0.01  -0.00  -0.00    -0.04   0.00   0.04     0.05  -0.02  -0.06
     9   6     0.00   0.02  -0.01    -0.00  -0.01   0.03     0.01   0.01  -0.03
    10   6    -0.00   0.02   0.01    -0.00   0.01   0.03    -0.01   0.01   0.03
    11   1     0.12   0.04  -0.24     0.23   0.05  -0.31     0.13  -0.01  -0.18
    12   1    -0.13  -0.29  -0.07     0.01   0.04  -0.05     0.14   0.28  -0.04
    13   1     0.21   0.20   0.41     0.16  -0.00   0.05    -0.10  -0.08  -0.19
    14   1    -0.21   0.20  -0.41     0.16   0.00   0.05     0.10  -0.08   0.19
    15   1     0.13  -0.29   0.07     0.01  -0.03  -0.05    -0.14   0.28   0.04
    16   1    -0.03   0.18   0.14    -0.13   0.39   0.30    -0.16   0.36   0.29
    17   1    -0.12   0.04   0.24     0.23  -0.05  -0.31    -0.13  -0.01   0.18
    18   1     0.03   0.18  -0.14    -0.13  -0.39   0.30     0.16   0.36  -0.29
    19   1     0.02  -0.03   0.00    -0.08   0.15   0.06     0.09  -0.12  -0.09
    20   1     0.04   0.04  -0.01    -0.05  -0.08   0.01     0.02   0.09   0.01
    21   1    -0.02  -0.03  -0.00    -0.08  -0.15   0.06    -0.09  -0.12   0.09
    22   1    -0.04   0.04   0.01    -0.05   0.08   0.01    -0.02   0.09  -0.01
                     34                     35                     36
                      A                      A                      A
 Frequencies --   1136.1527              1154.9208              1215.3065
 Red. masses --      1.3237                 1.1524                 1.3012
 Frc consts  --      1.0068                 0.9057                 1.1323
 IR Inten    --      8.0343                 2.0112                 0.8816
  Atom  AN      X      Y      Z        X      Y      Z        X      Y      Z
     1   6    -0.01  -0.04  -0.01    -0.01  -0.02   0.00     0.00   0.03   0.01
     2   6     0.03   0.01  -0.04     0.02   0.00  -0.03    -0.00  -0.02   0.02
     3   6     0.02   0.04  -0.02    -0.01   0.01  -0.03    -0.09  -0.03  -0.04
     4   6     0.02  -0.04  -0.02     0.01   0.01   0.03    -0.09   0.03  -0.04
     5   6     0.03  -0.01  -0.04    -0.02   0.00   0.03    -0.00   0.02   0.02
     6   6     0.01  -0.03   0.06     0.03  -0.02   0.05     0.01   0.00   0.00
     7   6    -0.01   0.04  -0.01     0.01  -0.02  -0.00     0.00  -0.03   0.01
     8   6     0.01   0.03   0.06    -0.03  -0.02  -0.05     0.01  -0.00   0.00
     9   6    -0.03  -0.01   0.01     0.02   0.00  -0.02     0.03   0.02   0.01
    10   6    -0.03   0.01   0.01    -0.02   0.00   0.02     0.03  -0.02   0.01
    11   1    -0.05  -0.05  -0.00    -0.02  -0.01  -0.04     0.00   0.04  -0.01
    12   1     0.09   0.18  -0.03     0.05   0.06  -0.02    -0.01   0.09   0.02
    13   1    -0.23   0.04  -0.08     0.01   0.02  -0.01     0.56   0.00   0.12
    14   1    -0.23  -0.04  -0.08    -0.01   0.02   0.01     0.56  -0.00   0.12
    15   1     0.09  -0.18  -0.03    -0.05   0.06   0.02    -0.01  -0.09   0.02
    16   1    -0.12   0.10   0.08    -0.08   0.04   0.02     0.03  -0.05  -0.03
    17   1    -0.05   0.05  -0.00     0.02  -0.01   0.04     0.00  -0.04  -0.01
    18   1    -0.12  -0.10   0.08     0.08   0.04  -0.02     0.03   0.05  -0.03
    19   1     0.22  -0.40  -0.18    -0.28   0.44   0.24     0.19  -0.16  -0.19
    20   1    -0.16   0.23   0.15     0.19  -0.27  -0.18    -0.09   0.16   0.08
    21   1     0.22   0.41  -0.18     0.28   0.44  -0.24     0.19   0.16  -0.19
    22   1    -0.16  -0.23   0.15    -0.19  -0.27   0.18    -0.09  -0.16   0.08
                     37                     38                     39
                      A                      A                      A
 Frequencies --   1275.1122              1275.6900              1298.4415
 Red. masses --      2.0194                 2.0764                 1.3615
 Frc consts  --      1.9345                 1.9910                 1.3524
 IR Inten    --      7.1197                 2.5952                 0.5903
  Atom  AN      X      Y      Z        X      Y      Z        X      Y      Z
     1   6     0.01  -0.04  -0.02     0.00  -0.05  -0.02    -0.02  -0.02   0.03
     2   6    -0.01   0.03   0.05    -0.01   0.04   0.05    -0.01  -0.03   0.02
     3   6     0.04  -0.00  -0.07     0.07   0.00  -0.07     0.04  -0.04  -0.07
     4   6     0.04   0.00  -0.07    -0.07   0.00   0.07     0.04   0.04  -0.07
     5   6    -0.01  -0.03   0.05     0.01   0.04  -0.05    -0.01   0.03   0.02
     6   6     0.01   0.06  -0.02     0.02   0.06  -0.02    -0.00   0.06   0.02
     7   6     0.01   0.04  -0.02    -0.00  -0.05   0.02    -0.02   0.02   0.03
     8   6     0.01  -0.06  -0.02    -0.02   0.06   0.02    -0.00  -0.06   0.02
     9   6    -0.09   0.12   0.08     0.09  -0.12  -0.08    -0.00  -0.02  -0.01
    10   6    -0.09  -0.12   0.08    -0.09  -0.12   0.08    -0.00   0.02  -0.01
    11   1    -0.01  -0.05  -0.01     0.00  -0.05  -0.01     0.15   0.07  -0.27
    12   1    -0.03   0.03   0.04    -0.03  -0.02   0.04     0.07   0.29   0.04
    13   1     0.04   0.10   0.14    -0.09   0.10   0.10    -0.15   0.18   0.35
    14   1     0.04  -0.10   0.14     0.09   0.10  -0.10    -0.15  -0.18   0.35
    15   1    -0.03  -0.03   0.04     0.03  -0.02  -0.04     0.07  -0.29   0.04
    16   1     0.00   0.09  -0.01    -0.01   0.10  -0.02     0.07  -0.21  -0.15
    17   1    -0.01   0.05  -0.01    -0.00  -0.05   0.01     0.15  -0.07  -0.27
    18   1     0.00  -0.09  -0.01     0.01   0.10   0.02     0.07   0.21  -0.15
    19   1     0.16  -0.25  -0.13    -0.15   0.25   0.13    -0.08   0.10   0.06
    20   1     0.28  -0.41  -0.24    -0.27   0.42   0.23    -0.08   0.12   0.07
    21   1     0.16   0.25  -0.13     0.15   0.25  -0.13    -0.08  -0.10   0.06
    22   1     0.28   0.41  -0.24     0.27   0.42  -0.23    -0.08  -0.12   0.07
                     40                     41                     42
                      A                      A                      A
 Frequencies --   1301.4365              1358.6906              1376.7450
 Red. masses --      1.3692                 2.2561                 2.8685
 Frc consts  --      1.3664                 2.4539                 3.2034
 IR Inten    --      0.1474                 4.6594                 6.9732
  Atom  AN      X      Y      Z        X      Y      Z        X      Y      Z
     1   6    -0.02  -0.03   0.03    -0.02  -0.02   0.02    -0.02   0.01   0.03
     2   6    -0.01  -0.04   0.02     0.03   0.14   0.03     0.01   0.15   0.06
     3   6     0.05  -0.02  -0.07     0.06  -0.10  -0.06     0.02  -0.15  -0.10
     4   6    -0.05  -0.02   0.07    -0.06  -0.10   0.06     0.02   0.15  -0.10
     5   6     0.01  -0.04  -0.02    -0.03   0.14  -0.03     0.01  -0.15   0.06
     6   6    -0.01   0.06   0.02     0.03  -0.07  -0.05     0.05  -0.09  -0.07
     7   6     0.02  -0.03  -0.03     0.02  -0.02  -0.02    -0.02  -0.01   0.03
     8   6     0.01   0.06  -0.02    -0.03  -0.07   0.05     0.05   0.09  -0.07
     9   6    -0.00   0.02   0.01     0.01   0.09  -0.01    -0.01  -0.08   0.02
    10   6     0.00   0.02  -0.01    -0.01   0.09   0.01    -0.01   0.08   0.02
    11   1     0.16   0.07  -0.27    -0.11  -0.06   0.16    -0.15  -0.04   0.20
    12   1     0.08   0.29   0.04    -0.10  -0.32   0.01    -0.09  -0.27   0.06
    13   1    -0.24   0.16   0.29    -0.42   0.01   0.14    -0.12   0.06   0.34
    14   1     0.24   0.16  -0.29     0.42   0.01  -0.14    -0.12  -0.06   0.34
    15   1    -0.08   0.29  -0.04     0.10  -0.32  -0.01    -0.09   0.27   0.06
    16   1     0.07  -0.22  -0.15    -0.05   0.19   0.11    -0.06   0.27   0.14
    17   1    -0.16   0.07   0.27     0.11  -0.06  -0.16    -0.15   0.04   0.20
    18   1    -0.07  -0.22   0.15     0.05   0.19  -0.11    -0.06  -0.27   0.14
    19   1     0.08  -0.09  -0.07     0.09  -0.10  -0.02    -0.03   0.03  -0.05
    20   1     0.09  -0.12  -0.07     0.09  -0.11  -0.12    -0.11   0.10   0.12
    21   1    -0.08  -0.09   0.07    -0.09  -0.10   0.02    -0.03  -0.03  -0.05
    22   1    -0.09  -0.12   0.07    -0.09  -0.11   0.12    -0.11  -0.10   0.12
                     43                     44                     45
                      A                      A                      A
 Frequencies --   1440.7421              1444.9839              1472.7269
 Red. masses --      2.6352                 2.2709                 1.1399
 Frc consts  --      3.2228                 2.7937                 1.4567
 IR Inten    --      9.4740                 4.0625                 8.1815
  Atom  AN      X      Y      Z        X      Y      Z        X      Y      Z
     1   6     0.10   0.11  -0.12     0.07   0.12  -0.08     0.01   0.02  -0.00
     2   6    -0.06  -0.14   0.07    -0.07  -0.12   0.06    -0.01  -0.03  -0.00
     3   6     0.04   0.02  -0.04     0.02  -0.00  -0.06     0.01   0.02   0.00
     4   6     0.04  -0.02  -0.04    -0.02  -0.00   0.06     0.01  -0.02   0.00
     5   6    -0.07   0.14   0.07     0.07  -0.11  -0.06    -0.01   0.03  -0.00
     6   6    -0.03  -0.06   0.02     0.00  -0.08  -0.01    -0.00  -0.01  -0.01
     7   6     0.10  -0.11  -0.12    -0.07   0.12   0.08     0.01  -0.02  -0.00
     8   6    -0.03   0.06   0.02    -0.00  -0.08   0.01    -0.00   0.01  -0.01
     9   6     0.01  -0.01  -0.01    -0.01   0.01   0.01    -0.04  -0.04   0.03
    10   6     0.01   0.01  -0.01     0.01   0.01  -0.01    -0.04   0.04   0.03
    11   1    -0.19  -0.02   0.35    -0.16   0.02   0.29    -0.00   0.01   0.02
    12   1    -0.01   0.27   0.09     0.02   0.25   0.10     0.01   0.06   0.00
    13   1    -0.07   0.14   0.21    -0.08   0.13   0.21    -0.03   0.02   0.00
    14   1    -0.07  -0.14   0.21     0.08   0.13  -0.21    -0.03  -0.02   0.00
    15   1    -0.01  -0.27   0.09    -0.02   0.25  -0.10     0.01  -0.06   0.00
    16   1    -0.06   0.17   0.19    -0.08   0.23   0.17    -0.02   0.04   0.03
    17   1    -0.19   0.02   0.35     0.16   0.02  -0.29    -0.00  -0.01   0.02
    18   1    -0.06  -0.17   0.19     0.08   0.23  -0.17    -0.02  -0.04   0.03
    19   1    -0.07  -0.05   0.16     0.04   0.14  -0.18     0.05   0.27  -0.39
    20   1    -0.12  -0.05  -0.01     0.20   0.11   0.02     0.45   0.21   0.07
    21   1    -0.07   0.05   0.16    -0.04   0.14   0.18     0.05  -0.27  -0.39
    22   1    -0.12   0.05  -0.01    -0.20   0.11  -0.02     0.45  -0.21   0.07
                     46                     47                     48
                      A                      A                      A
 Frequencies --   1473.2911              1507.5530              1530.3854
 Red. masses --      1.1811                 3.4422                 3.9158
 Frc consts  --      1.5105                 4.6093                 5.4034
 IR Inten    --      3.0894                 7.7480                 0.7857
  Atom  AN      X      Y      Z        X      Y      Z        X      Y      Z
     1   6     0.01   0.03  -0.00    -0.08   0.09   0.18     0.12  -0.06  -0.22
     2   6    -0.01  -0.04   0.00    -0.02  -0.10  -0.04    -0.02   0.06   0.05
     3   6     0.00   0.01  -0.01     0.01   0.04   0.03     0.00  -0.02  -0.03
     4   6    -0.00   0.01   0.01     0.01  -0.04   0.03    -0.00  -0.02   0.03
     5   6     0.01  -0.04  -0.00    -0.02   0.10  -0.04     0.02   0.06  -0.05
     6   6     0.00  -0.02  -0.01     0.10  -0.11  -0.17    -0.09   0.11   0.19
     7   6    -0.01   0.03   0.00    -0.08  -0.09   0.18    -0.12  -0.06   0.22
     8   6    -0.00  -0.02   0.01     0.10   0.11  -0.17     0.09   0.11  -0.19
     9   6     0.04   0.04  -0.03    -0.02   0.01   0.02    -0.01   0.01   0.02
    10   6    -0.04   0.04   0.03    -0.02  -0.01   0.02     0.01   0.01  -0.02
    11   1    -0.01   0.02   0.03     0.13   0.23  -0.18    -0.17  -0.23   0.24
    12   1     0.03   0.10   0.02     0.14   0.29   0.01    -0.10  -0.22   0.04
    13   1    -0.00   0.04   0.03    -0.05   0.02  -0.04     0.01   0.00   0.03
    14   1     0.00   0.04  -0.03    -0.05  -0.02  -0.04    -0.01   0.00  -0.03
    15   1    -0.03   0.10  -0.02     0.14  -0.29   0.01     0.10  -0.22  -0.04
    16   1    -0.02   0.07   0.04    -0.02   0.31   0.05    -0.01  -0.28  -0.02
    17   1     0.01   0.02  -0.03     0.13  -0.23  -0.18     0.17  -0.23  -0.24
    18   1     0.02   0.07  -0.04    -0.02  -0.31   0.05     0.01  -0.29   0.02
    19   1    -0.05  -0.26   0.40     0.03  -0.14   0.05     0.03  -0.15   0.06
    20   1    -0.44  -0.21  -0.07    -0.04  -0.23  -0.08    -0.06  -0.23  -0.08
    21   1     0.05  -0.26  -0.40     0.03   0.14   0.05    -0.03  -0.15  -0.06
    22   1     0.44  -0.21   0.07    -0.04   0.23  -0.08     0.06  -0.23   0.08
                     49                     50                     51
                      A                      A                      A
 Frequencies --   2983.9125              2984.1375              3080.0720
 Red. masses --      1.0714                 1.0718                 1.0894
 Frc consts  --      5.6206                 5.6234                 6.0890
 IR Inten    --    125.6739                20.8487                15.5976
  Atom  AN      X      Y      Z        X      Y      Z        X      Y      Z
     1   6     0.00   0.00  -0.00     0.00   0.00  -0.00    -0.00   0.00  -0.00
     2   6    -0.00  -0.00   0.00    -0.00  -0.00   0.00     0.00   0.00  -0.00
     3   6    -0.00  -0.00   0.00    -0.00  -0.00   0.00    -0.00   0.00  -0.00
     4   6    -0.00   0.00   0.00     0.00  -0.00  -0.00     0.00   0.00   0.00
     5   6    -0.00   0.00   0.00     0.00  -0.00  -0.00    -0.00   0.00   0.00
     6   6    -0.00   0.00  -0.00    -0.00   0.00  -0.00    -0.00  -0.00   0.00
     7   6     0.00  -0.00  -0.00    -0.00   0.00   0.00     0.00   0.00   0.00
     8   6    -0.00  -0.00  -0.00     0.00   0.00   0.00     0.00  -0.00  -0.00
     9   6    -0.05  -0.02  -0.01     0.05   0.02   0.01     0.01  -0.02   0.05
    10   6    -0.05   0.02  -0.01    -0.05   0.02  -0.01    -0.01  -0.02  -0.05
    11   1    -0.00  -0.00  -0.00    -0.00  -0.00  -0.00     0.00  -0.00   0.00
    12   1    -0.00   0.00   0.00    -0.00   0.00  -0.00    -0.00   0.00   0.01
    13   1     0.00   0.02  -0.01     0.00   0.03  -0.01    -0.00  -0.05   0.02
    14   1     0.00  -0.02  -0.01    -0.00   0.03   0.01     0.00  -0.05  -0.02
    15   1    -0.00  -0.00   0.00     0.00   0.00   0.00     0.00   0.00  -0.01
    16   1    -0.00  -0.00   0.01    -0.00  -0.00   0.01     0.01   0.01  -0.02
    17   1    -0.00   0.00  -0.00     0.00  -0.00   0.00    -0.00  -0.00  -0.00
    18   1    -0.00   0.00   0.01     0.00  -0.00  -0.01    -0.01   0.01   0.02
    19   1     0.59   0.24   0.28    -0.59  -0.24  -0.28    -0.09  -0.04  -0.03
    20   1    -0.03   0.04  -0.11     0.03  -0.04   0.10    -0.09   0.30  -0.62
    21   1     0.59  -0.24   0.28     0.59  -0.24   0.28     0.09  -0.04   0.03
    22   1    -0.03  -0.04  -0.11    -0.03  -0.04  -0.10     0.09   0.30   0.62
                     52                     53                     54
                      A                      A                      A
 Frequencies --   3081.3996              3120.4769              3129.3252
 Red. masses --      1.0899                 1.0896                 1.0888
 Frc consts  --      6.0975                 6.2509                 6.2821
 IR Inten    --     42.5439                 9.2629                51.0335
  Atom  AN      X      Y      Z        X      Y      Z        X      Y      Z
     1   6    -0.00   0.00  -0.00     0.00   0.00   0.00     0.00   0.00   0.00
     2   6    -0.00  -0.00   0.00     0.00   0.00  -0.00     0.00   0.00  -0.00
     3   6    -0.00  -0.00   0.00    -0.00  -0.06   0.03    -0.00  -0.05   0.02
     4   6    -0.00   0.00   0.00    -0.00   0.06   0.03     0.00  -0.05  -0.02
     5   6    -0.00   0.00   0.00     0.00  -0.00  -0.00    -0.00   0.00   0.00
     6   6    -0.00  -0.00   0.00    -0.00  -0.00   0.00    -0.00  -0.00   0.00
     7   6    -0.00  -0.00  -0.00     0.00  -0.00   0.00    -0.00   0.00  -0.00
     8   6    -0.00   0.00   0.00    -0.00   0.00   0.00     0.00  -0.00  -0.00
     9   6    -0.01   0.02  -0.05     0.00   0.00   0.00    -0.00  -0.00   0.00
    10   6    -0.01  -0.02  -0.05     0.00  -0.00   0.00     0.00  -0.00  -0.00
    11   1     0.00   0.00   0.00    -0.00  -0.00  -0.00    -0.00  -0.00  -0.00
    12   1     0.00  -0.00  -0.00    -0.02   0.00   0.04    -0.02   0.00   0.05
    13   1     0.00   0.01  -0.00     0.04   0.63  -0.31     0.04   0.63  -0.31
    14   1     0.00  -0.01  -0.00     0.04  -0.63  -0.31    -0.04   0.63   0.31
    15   1     0.00   0.00  -0.00    -0.02  -0.00   0.04     0.02   0.00  -0.05
    16   1     0.01   0.01  -0.02     0.00   0.01  -0.01     0.01   0.01  -0.01
    17   1     0.00  -0.00   0.00    -0.00   0.00  -0.00     0.00  -0.00   0.00
    18   1     0.01  -0.01  -0.02     0.00  -0.01  -0.01    -0.01   0.01   0.01
    19   1     0.09   0.04   0.03    -0.02  -0.01  -0.01     0.02   0.01   0.01
    20   1     0.09  -0.30   0.62    -0.00   0.00  -0.00    -0.00   0.02  -0.05
    21   1     0.09  -0.04   0.03    -0.02   0.01  -0.01    -0.02   0.01  -0.01
    22   1     0.09   0.30   0.62    -0.00  -0.00  -0.00     0.00   0.02   0.05
                     55                     56                     57
                      A                      A                      A
 Frequencies --   3184.2745              3185.9777              3211.7087
 Red. masses --      1.0885                 1.0888                 1.0970
 Frc consts  --      6.5029                 6.5114                 6.6669
 IR Inten    --     15.2787                14.7002                15.8143
  Atom  AN      X      Y      Z        X      Y      Z        X      Y      Z
     1   6     0.00   0.05   0.02    -0.00  -0.05  -0.02    -0.00   0.02   0.01
     2   6     0.00  -0.00  -0.01    -0.00   0.00   0.01     0.00  -0.00  -0.01
     3   6     0.00   0.00  -0.00    -0.00  -0.00   0.00    -0.00   0.00   0.00
     4   6     0.00  -0.00  -0.00     0.00  -0.00  -0.00    -0.00  -0.00   0.00
     5   6     0.00   0.00  -0.01     0.00   0.00  -0.01     0.00   0.00  -0.01
     6   6    -0.01  -0.01   0.01     0.01   0.01  -0.01     0.03   0.03  -0.04
     7   6     0.00  -0.05   0.02     0.00  -0.05   0.02    -0.00  -0.02   0.01
     8   6    -0.01   0.01   0.01    -0.01   0.01   0.01     0.03  -0.03  -0.04
     9   6     0.00  -0.00   0.00     0.00  -0.00   0.00     0.00   0.00  -0.00
    10   6     0.00   0.00   0.00    -0.00  -0.00  -0.00     0.00  -0.00  -0.00
    11   1     0.00  -0.61  -0.19    -0.00   0.61   0.19     0.00  -0.23  -0.07
    12   1    -0.05   0.01   0.10     0.04  -0.01  -0.09    -0.06   0.01   0.14
    13   1    -0.00  -0.01   0.01     0.00   0.01  -0.01     0.00  -0.00   0.00
    14   1    -0.00   0.01   0.01    -0.00   0.01   0.01     0.00   0.00   0.00
    15   1    -0.05  -0.01   0.10    -0.04  -0.01   0.09    -0.06  -0.01   0.14
    16   1     0.13   0.15  -0.18    -0.14  -0.15   0.19    -0.32  -0.35   0.44
    17   1     0.00   0.61  -0.19     0.00   0.61  -0.19     0.00   0.23  -0.07
    18   1     0.13  -0.15  -0.18     0.14  -0.15  -0.19    -0.32   0.35   0.44
    19   1    -0.00   0.00   0.00    -0.00  -0.00  -0.00    -0.00  -0.00  -0.00
    20   1    -0.00   0.00  -0.01    -0.00   0.01  -0.01     0.00  -0.01   0.02
    21   1    -0.00  -0.00   0.00     0.00  -0.00   0.00    -0.00   0.00  -0.00
    22   1    -0.00  -0.00  -0.01     0.00   0.01   0.01     0.00   0.01   0.02
                     58                     59                     60
                      A                      A                      A
 Frequencies --   3211.9007              3232.8916              3233.8538
 Red. masses --      1.0973                 1.0967                 1.0976
[...]
 42,0.00007056,0.00044681,-0.00130746,-0.00352614,0.00348541,0.00101289
 ,0.00036793,0.00058032,0.00031896,0.04803174,-0.00075261,0.00559948,-0
 .00308228,-0.12315665,0.01891669,-0.29384402,-0.00650601,-0.00440173,-
 0.00567049,0.00035485,-0.00014958,-0.00034440,-0.00092106,0.00078093,-
 0.00022370,-0.00222044,-0.00014856,-0.00089168,0.00025217,-0.00032519,
 0.00106548,0.00140653,-0.00078993,-0.00149816,-0.00055574,-0.00040093,
 -0.00027922,-0.00005480,0.00099673,-0.00056964,0.00077548,-0.00050695,
 -0.00035722,0.13132092,-0.02087868,0.30524554,0.00377113,0.00012861,0.
 00140757,-0.00094115,-0.00500378,0.00256032,-0.03739322,-0.00207162,-0
 .01762139,-0.00905557,0.01650975,0.01536847,-0.00273841,-0.00434669,-0
 .00024660,-0.00312402,0.00118189,-0.00475796,-0.00078534,0.00117064,-0
 .00152835,-0.00061595,0.00112275,0.00153308,0.00210398,0.00056571,0.00
 070639,0.00006140,-0.02025411,-0.00583954,0.00015595,-0.00022950,0.000
 07035,-0.00123308,0.00016766,0.00094068,0.04640762,0.00024429,-0.00401
 394,0.00186289,-0.00165178,-0.01629285,-0.01387994,-0.00940190,-0.2704
 4310,-0.10725073,-0.00089362,-0.00013670,0.00066051,-0.00028064,0.0004
 7633,-0.00015663,0.00058273,-0.00045380,0.00079693,-0.00010282,0.00066
 180,0.00014340,-0.00023402,-0.00028003,0.00051281,0.00009885,-0.000078
 08,-0.00025382,0.00123361,0.00106386,0.00144460,-0.00122292,-0.0004921
 9,-0.00024702,-0.00017887,0.00078274,0.00063779,0.01233264,0.28776585,
 -0.00175129,0.00318558,-0.00348717,0.00265418,0.02083812,0.01135402,-0
 .01657580,-0.11309791,-0.09706882,0.00448920,-0.01115044,-0.00903785,0
 .00202687,0.00162526,0.00014841,-0.00321843,-0.00122258,-0.00219137,-0
 .00009770,-0.00029039,-0.00027730,0.00006322,0.00067876,-0.00036620,-0
 .00092364,-0.00016486,0.00022431,0.00471263,-0.01505676,-0.00575089,0.
 00094679,0.00059437,0.00035160,0.00075620,-0.00139964,-0.00006838,0.00
 877070,0.11571341,0.10407556,-0.00078547,-0.00117091,-0.00152844,-0.00
 273833,0.00434667,-0.00024706,-0.00905556,-0.01650824,0.01537031,-0.03
 739311,0.00207364,-0.01762355,-0.00094101,0.00500407,0.00255978,-0.000
 61608,-0.00112277,0.00153340,0.00377097,-0.00012829,0.00140738,-0.0031
 2409,-0.00118226,-0.00475771,0.00006100,0.02025358,-0.00584184,0.00210
 401,-0.00056564,0.00070646,0.00033617,-0.00016636,-0.00030471,0.000173
 25,-0.00018000,0.00003501,0.00145633,-0.00000567,-0.00055767,0.0464083
 1,0.00010279,0.00066180,-0.00014355,0.00028082,0.00047624,0.00015658,0
 .00089396,-0.00013579,-0.00066121,0.00940392,-0.27042054,0.10726937,0.
 00165240,-0.01629363,0.01388274,0.00023403,-0.00028018,-0.00051281,-0.
 00024441,-0.00401442,-0.00186283,-0.00058312,-0.00045373,-0.00079715,-
 0.00123314,0.00106553,-0.00144536,-0.00009889,-0.00007807,0.00025386,-
 0.00006840,0.00006007,0.00005179,0.00004669,-0.00001434,-0.00004653,0.
 00000562,0.00091858,0.00008811,-0.01233570,0.28774192,-0.00009766,0.00
 029034,-0.00027727,0.00202684,-0.00162537,0.00014862,0.00448926,0.0111
 4976,-0.00903925,-0.01657891,0.11311667,-0.09709170,0.00265437,-0.0208
 3534,0.01135457,0.00006324,-0.00067880,-0.00036617,-0.00175131,-0.0031
 8552,-0.00348654,-0.00321830,0.00122222,-0.00219131,0.00471235,0.01505
 601,-0.00575236,-0.00092372,0.00016491,0.00022430,-0.00015305,0.000026
 78,0.00012373,-0.00010695,0.00012261,0.00002958,-0.00055769,-0.0000882
 2,-0.00006881,0.00877407,-0.11573307,0.10409988,-0.00108242,-0.0009900
 7,-0.00304269,0.00222932,0.00233113,0.00114244,-0.00140312,-0.00103849
 ,0.00161043,0.00268686,0.00050078,0.00141188,-0.07656816,0.00069581,-0
 .12264936,-0.00352332,-0.00103427,0.00474115,-0.00483941,-0.00338501,-
 0.01296174,0.00135431,0.00380962,-0.00004812,0.00162353,-0.00013273,-0
 .00158679,0.00034348,-0.00047593,-0.00007260,0.00001476,-0.00001070,-0
 .00008469,-0.00036032,0.00015347,0.00005796,0.00017326,-0.00004669,-0.
 00010695,-0.00123308,0.00017893,0.00075618,0.08182685,-0.00016155,-0.0
 0018571,-0.00082182,0.00091817,-0.00003300,0.00071480,-0.00054030,-0.0
 0055008,-0.00049071,-0.01119847,0.00535172,-0.01873371,0.00301731,-0.0
 5571938,-0.02142741,-0.00091557,-0.00041023,0.00128606,0.00573374,0.00
 825862,0.01925733,0.00264233,-0.00347795,0.00292228,0.00130746,-0.0035
 2654,-0.00348512,0.00045341,0.00007056,-0.00044686,0.00003547,0.000001
 72,0.00000399,-0.00015347,0.00001673,0.00002726,0.00018003,-0.00001435
 ,-0.00012262,-0.00016761,0.00078285,0.00139958,-0.00030561,0.04803552,
 0.00025222,0.00032533,0.00106567,-0.00092115,-0.00078105,-0.00022379,0
 .00035501,0.00014964,-0.00034446,-0.00650485,0.00440066,-0.00566876,-0
 .12315746,-0.01894243,-0.29384251,0.00140682,0.00078997,-0.00149862,-0
 .00075258,-0.00560055,-0.00308320,-0.00222057,0.00014867,-0.00089214,-
 0.00005491,-0.00099634,-0.00056918,-0.00055585,0.00040088,-0.00027919,
 0.00000423,-0.00000661,0.00001818,0.00005799,-0.00002727,0.00004853,0.
 00003499,0.00004653,0.00002959,0.00094071,-0.00063786,-0.00006845,0.13
 132046,0.02090618,0.30524351,-0.00093637,-0.00660713,-0.00368348,0.002
 87248,0.00028973,-0.00479052,-0.00079791,-0.00033716,-0.00112779,0.000
 42616,0.00009742,0.00036665,-0.00018837,0.00015213,-0.00052328,-0.1048
 9317,-0.08014340,-0.11206441,0.00051078,-0.00051563,0.00045787,-0.0001
 1611,-0.00002865,-0.00052442,0.00018950,0.00051117,0.00006839,0.002546
 91,0.00292286,0.00397730,-0.00265612,0.00072028,0.00177019,0.00033673,
 -0.00112452,-0.00033111,0.00056861,-0.00011055,-0.00084005,-0.00004267
 ,-0.00010323,-0.00006813,0.00001388,-0.00014123,0.00019534,0.10252119,
 0.00709332,0.01026207,0.00859750,0.00063051,-0.00090291,0.00309929,0.0
 0132722,-0.00557475,-0.00020356,0.00041371,-0.00005944,-0.00020323,0.0
 0019639,-0.00012315,-0.00012009,-0.07927360,-0.14179878,-0.10715866,-0
 .00012431,0.00023159,-0.00006841,-0.00020943,-0.00007289,0.00026671,-0
 .00002536,0.00013352,-0.00002929,-0.01410925,-0.00457449,-0.01741587,-
 0.00009110,0.00023430,-0.00113050,0.00013205,0.00087540,0.00027844,-0.
 00153662,0.00004141,-0.00090121,0.00003878,0.00004845,-0.00005412,-0.0
 0011514,-0.00001623,0.00013162,0.08507534,0.14077969,-0.01039676,-0.01
 772496,-0.00811469,-0.00326239,0.00220062,-0.00214884,0.00059713,0.002
 08981,0.00031739,-0.00002672,-0.00001178,-0.00027372,0.00003328,0.0000
 8166,0.00061680,-0.10778639,-0.10299056,-0.18102189,-0.00028882,0.0001
 7477,-0.00028904,0.00011545,0.00016134,0.00031571,-0.00007012,-0.00029
 990,-0.00000967,0.00251721,0.00312612,0.00245196,0.00206644,0.00013027
 ,-0.00038520,-0.00082982,-0.00066884,-0.00018220,-0.00015905,0.0000144
 9,0.00086511,-0.00001745,0.00006134,0.00008749,-0.00010623,0.00001500,
 0.00003429,0.11766913,0.11451438,0.18725772,0.00027038,-0.00011531,0.0
 0030017,-0.00020783,-0.00005346,0.00011850,-0.00005104,-0.00116161,-0.
 00046269,0.00317481,0.00330365,-0.00480135,0.00153266,0.01404458,0.005
 93097,0.00048905,0.00001165,-0.00059653,-0.04178827,0.00006769,-0.0062
 9794,0.00320193,-0.01284644,-0.00303933,0.00491193,0.00021248,-0.00612
 979,-0.00002103,0.00002819,0.00001494,-0.00014020,-0.00003999,0.000118
 45,0.00001475,-0.00003547,0.00000423,0.00033614,0.00006838,-0.00015304
 ,0.00015593,0.00122302,0.00094667,-0.00166438,-0.00101281,0.00077546,-
 0.00010230,0.00001984,0.00002046,0.03254121,-0.00010911,-0.00020847,-0
 .00016098,-0.00012160,0.00025952,-0.00034868,-0.00041251,-0.00032917,0
 .00035443,0.00150094,-0.00232396,0.00124169,-0.00335950,-0.01144255,-0
 .00997418,-0.00009512,0.00033353,0.00040086,0.00310527,-0.31408650,-0.
 07934804,0.00179463,-0.00366260,0.00145282,0.00148386,0.00037371,-0.00
 147946,0.00003573,-0.00006191,-0.00006338,0.00003999,0.00016040,-0.000
 07220,0.00001068,0.00000172,0.00000661,0.00016633,0.00006007,-0.000026
 78,0.00022952,-0.00049220,-0.00059426,-0.00012077,0.00036788,0.0005068
 8,0.00013532,0.00000538,-0.00002649,-0.00329375,0.33115781,-0.00006628
 ,-0.00007525,0.00003381,0.00021360,-0.00014665,0.00000513,0.00049567,0
 .00085230,-0.00008054,-0.00442633,0.00233699,0.00015077,0.00160826,0.0
 1316692,0.00968144,-0.00011562,0.00002520,0.00039362,-0.00813483,-0.07
 728791,-0.08025712,0.00104202,-0.02463898,0.00189729,-0.00415419,-0.00
 166258,-0.00210464,0.00004860,-0.00001493,-0.00007754,0.00011845,0.000
 07218,-0.00006879,-0.00008468,-0.00000399,0.00001818,-0.00030472,-0.00
 005178,0.00012373,0.00007033,0.00024708,0.00035162,0.00133066,-0.00058
 037,-0.00035721,0.00000121,-0.00002893,-0.00001511,0.01065042,0.088167
 81,0.07088494,0.00051071,0.00051560,0.00045775,-0.00018828,-0.00015221
 ,-0.00052310,0.00042621,-0.00009738,0.00036667,-0.00079770,0.00033719,
 -0.00112778,0.00287257,-0.00029031,-0.00479065,-0.00011610,0.00002861,
 -0.00052430,-0.00093666,0.00660709,-0.00368453,-0.10490081,0.08013481,
 -0.11207575,0.00254660,-0.00292221,0.00397688,0.00018955,-0.00051120,0
 .00006839,-0.00010228,-0.00013531,0.00000122,0.00001385,0.00014124,0.0
 0019530,-0.00004266,0.00010320,-0.00006813,0.00056850,0.00011045,-0.00
 084005,0.00033662,0.00112454,-0.00033124,0.00003404,0.00002134,-0.0000
 2115,-0.00265613,-0.00072021,0.00177035,0.10252921,0.00012429,0.000231
 59,0.00006837,-0.00019635,-0.00012316,0.00012017,-0.00041366,-0.000059
 41,0.00020320,-0.00132705,-0.00557487,0.00020412,-0.00063082,-0.000903
 52,-0.00309949,0.00020947,-0.00007291,-0.00026668,-0.00709476,0.010262
 95,-0.00859937,0.07926577,-0.14177401,0.10715076,0.01410979,-0.0045728
 0,0.01741649,0.00002536,0.00013353,0.00002928,-0.00001984,0.00000539,0
 .00002893,0.00011511,-0.00001624,-0.00013159,-0.00003878,0.00004845,0.
 00005412,0.00153663,0.00004152,0.00090123,-0.00013214,0.00087548,-0.00
 027855,-0.00002134,0.00003099,0.00000783,0.00009124,0.00023439,0.00113
 049,-0.08506658,0.14075276,-0.00028880,-0.00017480,-0.00028900,0.00003
 323,-0.00008153,0.00061671,-0.00002673,0.00001177,-0.00027378,0.000597
 25,-0.00208928,0.00031757,-0.00326240,-0.00220070,-0.00214807,0.000115
 42,-0.00016131,0.00031569,-0.01039651,0.01772265,-0.00811522,-0.107798
 15,0.10298277,-0.18103939,0.00251597,-0.00312538,0.00245060,-0.0000701
 6,0.00029994,-0.00000968,0.00002046,0.00002649,-0.00001511,-0.00010622
 ,-0.00001500,0.00003428,-0.00001745,-0.00006133,0.00008748,-0.00015917
 ,-0.00001441,0.00086503,-0.00082985,0.00066864,-0.00018218,-0.00002115
 ,-0.00000783,0.00001808,0.00206652,-0.00013025,-0.00038541,0.11768190,
 -0.11450553,0.18727658,-0.00056454,0.00004480,-0.00039369,-0.00025405,
 0.00170980,-0.00122577,-0.00327042,-0.00151686,-0.00011478,-0.01927897
 ,-0.00796769,0.00737089,0.00002562,0.00183632,-0.00003132,-0.00065621,
 0.00000173,-0.00006890,0.00083279,0.00045989,0.00093079,0.00330334,-0.
 00173570,-0.00112548,-0.22077301,-0.07024772,0.08179995,-0.00049292,-0
 .00082545,0.00048954,-0.00000935,-0.00009724,-0.00000115,0.00020822,-0
 .00002238,-0.00001346,0.00035376,0.00006573,-0.00016261,0.00086250,0.0
 0063342,0.00009411,0.00003004,-0.00008085,-0.00022354,0.00008630,-0.00
 003807,-0.00009690,-0.00020994,-0.00015151,0.00004386,-0.00039646,-0.0
 0055543,-0.00004708,0.24424844,-0.00022709,0.00022812,-0.00031983,-0.0
 0053161,-0.00020641,0.00037466,0.00110820,0.00017995,0.00124432,0.0075
 0335,0.00218444,-0.00243662,-0.00046236,0.00020704,0.00064266,0.000056
 56,-0.00041542,-0.00038550,0.00187732,-0.00253149,0.00281769,-0.027074
 63,-0.01755958,0.00731331,-0.07583972,-0.06735399,0.03124430,0.0004692
 4,0.00006590,-0.00016190,0.00002910,0.00000468,0.00001161,0.00013617,-
 0.00006171,0.00007559,-0.00017597,0.00015223,0.00020456,-0.00017462,0.
 00027056,-0.00030557,-0.00004490,0.00001713,0.00000676,-0.00013579,0.0
 0005603,0.00008041,0.00137449,0.00017595,-0.00095163,0.00077590,-0.000
 21805,-0.00001465,0.07980057,0.07954148,-0.00067646,-0.00085111,-0.001
 69207,0.00113828,0.00205784,-0.00032059,-0.00199604,-0.00076677,0.0003
 9466,-0.01556626,-0.00720706,0.00449261,0.00144552,-0.00132978,0.00145
 856,-0.00118361,-0.00034813,0.00162801,-0.00284987,0.00086946,-0.00257
 732,0.00160313,0.00406120,0.00047959,0.08270544,0.02836174,-0.08069349
 ,0.00019537,-0.00026761,-0.00010678,0.00005539,-0.00000340,-0.00007233
 ,-0.00039102,0.00009567,0.00043028,0.00001630,0.00016610,0.00007985,0.
 00065282,0.00020712,0.00089794,0.00013137,0.00007208,-0.00025045,-0.00
 007890,0.00000047,0.00006965,0.00030935,0.00004503,-0.00023899,-0.0001
 8438,0.00041125,0.00021509,-0.08956125,-0.03491320,0.08707425,0.000312
 64,0.00000991,0.00039645,-0.00059336,-0.00071525,-0.00000033,0.0002649
 4,-0.00057518,-0.00203367,0.00152275,-0.01217730,-0.01792984,-0.003638
 52,0.00213682,-0.00402002,0.00043222,0.00027707,-0.00018943,0.00182278
 ,-0.00007919,0.00061986,-0.00216174,-0.00253100,0.00091923,-0.05044064
 ,0.02022601,0.03507445,-0.00011431,0.00030827,0.00012366,0.00000799,0.
 00004539,0.00003361,-0.00025902,-0.00038034,0.00004559,-0.00020101,0.0
 0033255,-0.00007060,-0.00012027,0.00029912,0.00001189,0.00009212,-0.00
 113775,-0.00065317,0.00008969,0.00000384,-0.00002253,0.00021368,-0.000
 17006,-0.00013924,-0.00006678,-0.00001513,0.00011238,-0.00398647,0.011
 35710,0.02425739,0.05682982,-0.00044058,-0.00015300,-0.00059183,0.0001
 7551,0.00010251,-0.00033441,-0.00013256,0.00045724,0.00052400,-0.00193
 711,0.00327487,0.00712409,0.00241293,-0.00076710,0.00071462,-0.0001836
 3,-0.00034358,0.00033902,0.00070769,-0.00595951,-0.00033070,0.00262983
 ,-0.00956437,-0.02912799,0.01747064,-0.09385129,-0.09907123,0.00007751
 ,-0.00007273,0.00004122,0.00002494,-0.00000751,-0.00001250,-0.00031876
 ,-0.00017747,0.00043155,-0.00009560,0.00004146,0.00010325,-0.00004632,
 -0.00007825,-0.00004203,-0.00001983,0.00039454,-0.00003546,-0.00005583
 ,0.00001529,0.00005948,-0.00183235,-0.00052019,-0.00055683,-0.00019612
 ,0.00062661,0.00100962,-0.00117081,0.00500261,0.00952801,-0.01712413,0
 .10145849,0.00003519,-0.00025905,-0.00046911,0.00056261,0.00073000,0.0
 0099175,0.00174669,-0.00023644,-0.00049008,0.00399525,-0.00800952,-0.0
 1343963,-0.00205116,-0.00005636,-0.00207289,0.00040976,-0.00029834,0.0
 0058354,0.00010706,0.00122387,-0.00126551,-0.00071915,0.00193792,0.005
 08402,0.03156492,-0.10024891,-0.25517839,0.00027588,0.00061390,-0.0001
 1430,0.00006271,0.00000401,-0.00005570,-0.00013500,0.00009983,0.000462
 86,-0.00058165,0.00044374,0.00052047,-0.00044731,0.00024662,-0.0004413
 1,-0.00048742,-0.00096920,-0.00007279,-0.00020743,0.00005972,0.0001380
 0,0.00010643,0.00004919,0.00017285,-0.00006107,-0.00078482,0.00005303,
 0.00252296,-0.00471835,-0.01110150,-0.03661744,0.11020141,0.27665864,0
 .00083295,-0.00045968,0.00093100,0.00002564,-0.00183640,-0.00003116,-0
 .01927891,0.00796771,0.00736991,-0.00327049,0.00151684,-0.00011488,-0.
 00025410,-0.00170990,-0.00122563,0.00330230,0.00173620,-0.00112533,-0.
 00056453,-0.00004490,-0.00039361,-0.00065615,-0.00000177,-0.00006896,-
 0.00049294,0.00082549,0.00048951,-0.22077880,0.07025080,0.08179350,-0.
 00020991,0.00015150,0.00004381,0.00003005,0.00008082,-0.00022356,0.000
 86248,-0.00063339,0.00009415,0.00035378,-0.00006574,-0.00016262,0.0002
 0823,0.00002239,-0.00001347,-0.00039645,0.00055542,-0.00004715,-0.0000
 0935,0.00009725,-0.00000116,0.00008631,0.00003807,-0.00009692,-0.00003
 177,0.00013974,-0.00002838,-0.00002690,0.00000276,-0.00015779,0.244254
 89,-0.00187733,-0.00253179,-0.00281770,0.00046244,0.00020714,-0.000642
 51,-0.00750551,0.00218532,0.00243699,-0.00110846,0.00017985,-0.0012443
 9,0.00053176,-0.00020672,-0.00037466,0.02707532,-0.01755975,-0.0073114
 4,0.00022708,0.00022826,0.00031963,-0.00005663,-0.00041540,0.00038567,
 -0.00046925,0.00006595,0.00016192,0.07584281,-0.06735481,-0.03124220,-
 0.00137444,0.00017601,0.00095149,0.00004491,0.00001712,-0.00000679,0.0
 0017472,0.00027052,0.00030563,0.00017597,0.00015221,-0.00020458,-0.000
 13621,-0.00006174,-0.00007554,-0.00077591,-0.00021808,0.00001468,-0.00
 002909,0.00000468,-0.00001162,0.00013577,0.00005603,-0.00008041,-0.000
 13976,0.00019736,-0.00017626,-0.00003896,0.00006317,-0.00001517,-0.079
 80404,0.07954286,-0.00284965,-0.00086953,-0.00257701,0.00144523,0.0013
 3002,0.00145855,-0.01556589,0.00720685,0.00449166,-0.00199598,0.000766
 80,0.00039467,0.00113824,-0.00205787,-0.00032037,0.00160091,-0.0040596
 6,0.00048055,-0.00067645,0.00085091,-0.00169211,-0.00118350,0.00034823
 ,0.00162786,0.00019537,0.00026761,-0.00010679,0.08269843,-0.02835964,-
 0.08068681,0.00030948,-0.00004507,-0.00023906,0.00013140,-0.00007212,-
 0.00025046,0.00065283,-0.00020706,0.00089791,0.00001629,-0.00016612,0.
 00007989,-0.00039102,-0.00009564,0.00043030,-0.00018430,-0.00041120,0.
 00021512,0.00005539,0.00000339,-0.00007233,-0.00007891,-0.00000047,0.0
 0006966,-0.00002838,0.00017622,-0.00013155,0.00000580,0.00001264,-0.00
 003543,-0.08955397,0.03491041,0.08706650,0.00182283,0.00007949,0.00061
 983,-0.00363833,-0.00213728,-0.00401976,0.00152253,0.01217564,-0.01793
 057,0.00026485,0.00057497,-0.00203374,-0.00059338,0.00071527,-0.000000
 42,-0.00216180,0.00253130,0.00091805,0.00031261,-0.00000988,0.00039642
 ,0.00043220,-0.00027706,-0.00018938,-0.00011430,-0.00030825,0.00012369
 ,-0.05044037,-0.02022235,0.03507525,0.00021363,0.00017006,-0.00013927,
 0.00009212,0.00113766,-0.00065329,-0.00012023,-0.00029912,0.00001197,-
 0.00020106,-0.00033256,-0.00007059,-0.00025903,0.00038034,0.00004555,-
 0.00006680,0.00001512,0.00011241,0.00000800,-0.00004539,0.00003361,0.0
 0008968,-0.00000384,-0.00002254,-0.00002690,0.00003896,0.00000579,0.00
 002039,0.00005180,0.00007596,-0.00398632,-0.01135520,0.02425868,0.0568
 2971,-0.00070743,-0.00595966,0.00033120,-0.00241320,-0.00076728,-0.000
 71491,0.00193753,0.00327538,-0.00712619,0.00013268,0.00045719,-0.00052
 412,-0.00017552,0.00010240,0.00033455,-0.00262985,-0.00956173,0.029129
 27,0.00044064,-0.00015290,0.00059177,0.00018367,-0.00034360,-0.0003389
 4,-0.00007747,-0.00007279,-0.00004122,-0.01746724,-0.09383435,0.099057
 04,0.00183232,-0.00052007,0.00055698,0.00001977,0.00039467,0.00003539,
 0.00004630,-0.00007826,0.00004202,0.00009552,0.00004142,-0.00010321,0.
 00031874,-0.00017754,-0.00043146,0.00019611,0.00062659,-0.00100966,-0.
 00002493,-0.00000751,0.00001250,0.00005580,0.00001528,-0.00005946,-0.0
 0000278,0.00006317,-0.00001265,-0.00005180,0.00005821,-0.00001406,0.00
 117082,0.00500183,-0.00952871,0.01712034,0.10143953,0.00010720,-0.0012
 2341,-0.00126542,-0.00205107,0.00005617,-0.00207288,0.00399512,0.00800
 830,-0.01343990,0.00174665,0.00023642,-0.00049006,0.00056266,-0.000729
 96,0.00099180,-0.00071886,-0.00193664,0.00508146,0.00003516,0.00025903
 ,-0.00046919,0.00040973,0.00029842,0.00058351,0.00027588,-0.00061390,-
 0.00011424,0.03156531,0.10023471,-0.25519551,0.00010624,-0.00004912,0.
 00017282,-0.00048742,0.00096916,-0.00007291,-0.00044727,-0.00024668,-0
 .00044125,-0.00058164,-0.00044371,0.00052053,-0.00013506,-0.00009975,0
 .00046285,-0.00006111,0.00078476,0.00005305,0.00006270,-0.00000402,-0.
 00005570,-0.00020743,-0.00005972,0.00013802,-0.00015779,0.00001516,-0.
 00003543,0.00007597,0.00001407,0.00007149,0.00252271,0.00471685,-0.011
 10076,-0.03661768,-0.11018614,0.27667769\\-0.00022630,-0.00042941,-0.0
 0086801,-0.00206334,0.00103835,0.00074102,-0.00540326,-0.00006056,0.00
 429183,0.00540340,-0.00006041,-0.00429208,0.00206293,0.00103867,-0.000
 74160,-0.00177612,-0.00026992,0.00066376,0.00022658,-0.00042902,0.0008
 6832,0.00177595,-0.00027060,-0.00066344,0.00094384,-0.00026786,-0.0005
 1219,-0.00094394,-0.00026819,0.00051228,0.00017219,-0.00006713,-0.0001
 5125,0.00003244,-0.00003561,-0.00002834,-0.00002921,0.00013902,0.00010
 342,0.00002926,0.00013869,-0.00010331,-0.00003231,-0.00003560,0.000028
 68,-0.00011216,-0.00000041,0.00001408,-0.00017215,-0.00006740,0.000151
 23,0.00011213,-0.00000033,-0.00001416,0.00020180,-0.00002226,0.0001891
 5,-0.00012660,-0.00002391,-0.00006968,-0.00020180,-0.00002236,-0.00018
 918,0.00012670,-0.00002373,0.00006945\\\@


 THE NUMBERS ARE MEANINGLESS, BUT THE TRENDS ARE IMPORTANT.
     -- LARRY BURGGRAF
 Job cpu time:       0 days  1 hours  3 minutes 58.2 seconds.
 Elapsed time:       0 days  0 hours  0 minutes 41.1 seconds.
 File lengths (MBytes):  RWF=    182 Int=      0 D2E=      0 Chk=     10 Scr=      1
 Normal termination of Gaussian 16 at Mon Jul 28 00:18:00 2025.
