 Entering Gaussian System, Link 0=g16
 Initial command:
 /home/hongchang/data/software/Gaussian/g16/l1.exe "/home/hongchang/data/software/Gaussian/g16/scratch/Gau-1407730.inp" -scrdir="/home/hongchang/data/software/Gaussian/g16/scratch/"
 Entering Link 1 = /home/hongchang/data/software/Gaussian/g16/l1.exe PID=   1407731.
  
 Copyright (c) 1988,1990,1992,1993,1995,1998,2003,2009,2016,
            Gaussian, Inc.  All Rights Reserved.
  
 This is part of the Gaussian(R) 16 program.  It is based on
 the Gaussian(R) 09 system (copyright 2009, Gaussian, Inc.),
 the Gaussian(R) 03 system (copyright 2003, Gaussian, Inc.),
 the Gaussian(R) 98 system (copyright 1998, Gaussian, Inc.),
 the Gaussian(R) 94 system (copyright 1995, Gaussian, Inc.),
 the Gaussian 92(TM) system (copyright 1992, Gaussian, Inc.),
 the Gaussian 90(TM) system (copyright 1990, Gaussian, Inc.),
 the Gaussian 88(TM) system (copyright 1988, Gaussian, Inc.),
 the Gaussian 86(TM) system (copyright 1986, Carnegie Mellon
 University), and the Gaussian 82(TM) system (copyright 1983,
 Carnegie Mellon University). Gaussian is a federally registered
 trademark of Gaussian, Inc.
  
 This software contains proprietary and confidential information,
 including trade secrets, belonging to Gaussian, Inc.
  
 This software is provided under written license and may be
 used, copied, transmitted, or stored only in accord with that
 written license.
  
 The following legend is applicable only to US Government
 contracts under FAR:
  
                    RESTRICTED RIGHTS LEGEND
  
 Use, reproduction and disclosure by the US Government is
 subject to restrictions as set forth in subparagraphs (a)
 and (c) of the Commercial Computer Software - Restricted
 Rights clause in FAR 52.227-19.
  
 Gaussian, Inc.
 340 Quinnipiac St., Bldg. 40, Wallingford CT 06492
  
  
 ---------------------------------------------------------------
 Warning -- This program may not be used in any manner that
 competes with the business of Gaussian, Inc. or will provide
 assistance to any competitor of Gaussian, Inc.  The licensee
 of this program is prohibited from giving any competitor of
 Gaussian, Inc. access to this program.  By using this program,
 the user acknowledges that Gaussian, Inc. is engaged in the
 business of creating and licensing software in the field of
 computational chemistry and represents and warrants to the
 licensee that it is not a competitor of Gaussian, Inc. and that
 it will not use this program in any manner prohibited above.
 ---------------------------------------------------------------
  

 Cite this work as:
 Gaussian 16, Revision A.03,
 M. J. Frisch, G. W. Trucks, H. B. Schlegel, G. E. Scuseria, 
 M. A. Robb, J. R. Cheeseman, G. Scalmani, V. Barone, 
 G. A. Petersson, H. Nakatsuji, X. Li, M. Caricato, A. V. Marenich, 
 J. Bloino, B. G. Janesko, R. Gomperts, B. Mennucci, H. P. Hratchian, 
 J. V. Ortiz, A. F. Izmaylov, J. L. Sonnenberg, D. Williams-Young, 
 F. Ding, F. Lipparini, F. Egidi, J. Goings, B. Peng, A. Petrone, 
 T. Henderson, D. Ranasinghe, V. G. Zakrzewski, J. Gao, N. Rega, 
 G. Zheng, W. Liang, M. Hada, M. Ehara, K. Toyota, R. Fukuda, 
 J. Hasegawa, M. Ishida, T. Nakajima, Y. Honda, O. Kitao, H. Nakai, 
 T. Vreven, K. Throssell, J. A. Montgomery, Jr., J. E. Peralta, 
 F. Ogliaro, M. J. Bearpark, J. J. Heyd, E. N. Brothers, K. N. Kudin, 
 V. N. Staroverov, T. A. Keith, R. Kobayashi, J. Normand, 
 K. Raghavachari, A. P. Rendell, J. C. Burant, S. S. Iyengar, 
 J. Tomasi, M. Cossi, J. M. Millam, M. Klene, C. Adamo, R. Cammi, 
 J. W. Ochterski, R. L. Martin, K. Morokuma, O. Farkas, 
 J. B. Foresman, and D. J. Fox, Gaussian, Inc., Wallingford CT, 2016.
 
 ******************************************
 Gaussian 16:  ES64L-G16RevA.03 25-Dec-2016
                28-Jul-2025 
 ******************************************
 %nprocshared=96
 Will use up to   96 processors via shared memory.
 %mem=600GB
 %chk=01_02_TS.chk
 -----------------------------------------------------------
 # freq b3lyp/6-311g(d,p) em=gd3bj scrf(solvent=Cis-Decalin)
 -----------------------------------------------------------
 1/10=4,30=1,38=1/1,3;
 2/12=2,17=6,18=5,40=1/2;
 3/5=4,6=6,7=101,11=2,25=1,30=1,70=2201,71=2,72=99,74=-5,124=41,140=1/1,2,3;
 4//1;
 5/5=2,38=5,53=99,98=1/2;
 8/6=4,10=90,11=11/1;
 11/6=1,8=1,9=11,15=111,16=1/1,2,10;
 10/6=1/2;
 6/7=2,8=2,9=2,10=2,28=1/1;
 7/8=1,10=1,25=1/1,2,3,16;
 1/10=4,30=1/3;
 99//99;
 --------
 01_02_TS
 --------
 Symbolic Z-matrix:
 Charge =  0 Multiplicity = 1
 C                    -1.3604   -1.17294   0.66363 
 C                    -0.72196  -0.11453   1.36144 
 C                    -0.79185   1.0556    0.56243 
 C                     0.79186   1.05555  -0.56252 
 C                     0.72197  -0.11466  -1.36141 
 C                    -1.9168   -0.70289  -0.49374 
 C                     1.36046  -1.17299  -0.66351 
 C                     1.91687  -0.70281   0.4938 
 C                     1.88012   0.80011   0.47303 
 C                    -1.8801    0.80004  -0.47311 
 H                    -1.33976  -2.21046   0.97207 
 H                    -0.25168  -0.19446   2.32965 
 H                    -0.69091   2.03965   1.00747 
 H                     0.6909    2.03955  -1.00767 
 H                     0.25171  -0.19469  -2.32961 
 H                    -2.4447   -1.28879  -1.2333 
 H                     1.33983  -2.21054  -0.97184 
 H                     2.4448   -1.28863   1.23341 
 H                     2.83483   1.1832    0.08172 
 H                     1.71151   1.2742    1.44094 
 H                    -2.83482   1.18313  -0.08183 
 H                    -1.7115    1.27404  -1.44106 
 

 GradGradGradGradGradGradGradGradGradGradGradGradGradGradGradGradGradGrad
 Berny optimization.
 Initialization pass.
 Trust Radius=3.00D-01 FncErr=1.00D-07 GrdErr=1.00D-07 EigMax=2.50D+02 EigMin=1.00D-04
 Number of steps in this run=      2 maximum allowed number of steps=      2.
 GradGradGradGradGradGradGradGradGradGradGradGradGradGradGradGradGradGrad

                          Input orientation:                          
 ---------------------------------------------------------------------
 Center     Atomic      Atomic             Coordinates (Angstroms)
 Number     Number       Type             X           Y           Z
 ---------------------------------------------------------------------
      1          6           0       -1.360404   -1.172937    0.663634
      2          6           0       -0.721955   -0.114529    1.361442
      3          6           0       -0.791848    1.055599    0.562430
      4          6           0        0.791859    1.055547   -0.562522
      5          6           0        0.721970   -0.114664   -1.361412
      6          6           0       -1.916797   -0.702885   -0.493735
      7          6           0        1.360459   -1.172988   -0.663508
      8          6           0        1.916872   -0.702807    0.493797
      9          6           0        1.880122    0.800112    0.473028
     10          6           0       -1.880096    0.800037   -0.473105
     11          1           0       -1.339755   -2.210455    0.972066
     12          1           0       -0.251684   -0.194456    2.329646
     13          1           0       -0.690906    2.039646    1.007475
     14          1           0        0.690896    2.039547   -1.007666
     15          1           0        0.251705   -0.194693   -2.329610
     16          1           0       -2.444695   -1.288788   -1.233299
     17          1           0        1.339828   -2.210538   -0.971836
     18          1           0        2.444801   -1.288625    1.233407
     19          1           0        2.834832    1.183204    0.081718
     20          1           0        1.711512    1.274197    1.440941
     21          1           0       -2.834820    1.183134   -0.081833
     22          1           0       -1.711495    1.274040   -1.441060
 ---------------------------------------------------------------------
                    Distance matrix (angstroms):
                    1          2          3          4          5
     1  C    0.000000
     2  C    1.419430   0.000000
     3  C    2.302145   1.418628   0.000000
     4  C    3.331942   2.713365   1.942587   0.000000
     5  C    3.091445   3.082021   2.713361   1.418627   0.000000
     6  C    1.367489   2.283745   2.339500   3.230113   2.839359
     7  C    3.027276   3.091473   3.331959   2.302145   1.419432
     8  C    3.315178   2.839417   3.230150   2.339503   2.283748
     9  C    3.798718   2.897698   2.685645   1.523787   2.354422
    10  C    2.335569   2.354418   1.523788   2.685633   2.897674
    11  H    1.082590   2.219504   3.336932   4.191122   3.753421
    12  H    2.227618   1.079334   2.231024   3.319055   3.818151
    13  H    3.299567   2.183283   1.084713   2.373169   3.499842
    14  H    4.161866   3.499838   2.373159   1.084713   2.183284
    15  H    3.537706   3.818155   3.319055   2.231024   1.079334
    16  H    2.188027   3.328573   3.384183   4.052299   3.379756
    17  H    3.323045   3.753450   4.191141   3.336933   2.219506
    18  H    3.849365   3.379828   4.052344   3.384187   3.328576
    19  H    4.846652   3.996566   3.660625   2.145945   2.869019
    20  H    4.003666   2.802970   2.662025   2.215273   3.280444
    21  H    2.877620   2.869002   2.145944   3.660620   3.996543
    22  H    3.246644   3.280447   2.215274   2.662020   2.802962
                    6          7          8          9         10
     6  C    0.000000
     7  C    3.315151   0.000000
     8  C    3.958818   1.367487   0.000000
     9  C    4.196454   2.335570   1.503512   0.000000
    10  C    1.503512   3.798721   4.196475   3.877423   0.000000
    11  H    2.180440   3.323040   3.620409   4.436233   3.382832
    12  H    3.317014   3.537725   2.886416   2.996797   3.390598
    13  H    3.358261   4.161887   3.819086   2.903836   2.267801
    14  H    3.819047   3.299567   3.358261   2.267799   2.903815
    15  H    2.886364   2.227620   3.317015   3.390599   2.996777
    16  H    1.081163   3.849321   4.727526   5.096969   2.293438
    17  H    3.620387   1.082590   2.180439   3.382834   4.436238
    18  H    4.727541   2.188026   1.081164   2.293439   5.097002
    19  H    5.144556   2.877634   2.137638   1.100615   4.762897
    20  H    4.562505   3.246638   2.201772   1.090890   4.097322
    21  H    2.137638   4.846651   5.144580   4.762904   1.100616
    22  H    2.201773   4.003678   4.562526   4.097323   1.090890
                   11         12         13         14         15
    11  H    0.000000
    12  H    2.662926   0.000000
    13  H    4.299490   2.632919   0.000000
    14  H    5.109344   4.125152   2.443393   0.000000
    15  H    4.182954   4.686370   4.125157   2.632917   0.000000
    16  H    2.633248   4.324516   4.378963   4.578281   3.109584
    17  H    3.310426   4.182975   5.109366   4.299491   2.662929
    18  H    3.903964   3.109659   4.578328   4.378963   4.324517
    19  H    5.453147   4.059274   3.744509   2.552752   3.792842
    20  H    4.655413   2.607849   2.558401   2.760995   4.301829
    21  H    3.855174   3.792832   2.552758   3.744500   4.059254
    22  H    4.254771   4.301831   2.760992   2.558381   2.607844
                   16         17         18         19         20
    16  H    0.000000
    17  H    3.903921   0.000000
    18  H    5.476478   2.633246   0.000000
    19  H    5.976071   3.855191   2.754714   0.000000
    20  H    5.567271   4.254764   2.673731   1.765677   0.000000
    21  H    2.754718   5.453146   5.976106   5.672010   4.795442
    22  H    2.673730   4.655430   5.567299   4.795435   4.474696
                   21         22
    21  H    0.000000
    22  H    1.765679   0.000000
 Stoichiometry    C10H12
 Framework group  C1[X(C10H12)]
 Deg. of freedom    60
 Full point group                 C1      NOp   1
 Largest Abelian subgroup         C1      NOp   1
 Largest concise Abelian subgroup C1      NOp   1
                         Standard orientation:                         
 ---------------------------------------------------------------------
 Center     Atomic      Atomic             Coordinates (Angstroms)
 Number     Number       Type             X           Y           Z
 ---------------------------------------------------------------------
      1          6           0        1.358371    1.172801    0.667794
      2          6           0        0.717766    0.114416    1.363658
      3          6           0        0.790122   -1.055736    0.564900
      4          6           0       -0.790104   -1.055712   -0.564937
      5          6           0       -0.717744    0.114475   -1.363642
      6          6           0        1.918333    0.702713   -0.487838
      7          6           0       -1.358381    1.172822   -0.667744
      8          6           0       -1.918367    0.702677    0.487851
      9          6           0       -1.881558   -0.800243    0.467240
     10          6           0        1.881563   -0.800208   -0.467277
     11          1           0        1.336773    2.210328    0.976130
     12          1           0        0.244508    0.194373    2.330403
     13          1           0        0.687803   -2.039770    1.009661
     14          1           0       -0.687770   -2.039726   -1.009738
     15          1           0       -0.244491    0.194474   -2.330385
     16          1           0        2.448514    1.288592   -1.225786
     17          1           0       -1.336795    2.210363   -0.976037
     18          1           0       -2.448575    1.288519    1.225810
     19          1           0       -2.835057   -1.183343    0.072996
     20          1           0       -1.715940   -1.274300    1.435684
     21          1           0        2.835073   -1.183297   -0.073047
     22          1           0        1.715950   -1.274240   -1.435734
 ---------------------------------------------------------------------
 Rotational constants (GHZ):           2.3964806           1.3303867           1.2664704
 Standard basis: 6-311G(d,p) (5D, 7F)
 There are   262 symmetry adapted cartesian basis functions of A   symmetry.
 There are   252 symmetry adapted basis functions of A   symmetry.
   252 basis functions,   416 primitive gaussians,   262 cartesian basis functions
    36 alpha electrons       36 beta electrons
       nuclear repulsion energy       521.7701784329 Hartrees.
 NAtoms=   22 NActive=   22 NUniq=   22 SFac= 1.00D+00 NAtFMM=   60 NAOKFM=F Big=F
 Integral buffers will be    131072 words long.
 Raffenetti 2 integral format.
 Two-electron integral symmetry is turned on.
 Nuclear repulsion after empirical dispersion term =      521.7246413881 Hartrees.
 Force inversion solution in PCM.
 ------------------------------------------------------------------------------
 Polarizable Continuum Model (PCM)
 =================================
 Model                : PCM.
 Atomic radii         : UFF (Universal Force Field).
 Polarization charges : Total charges.
 Charge compensation  : None.
 Solution method      : Matrix inversion.
 Cavity type          : Scaled VdW (van der Waals Surface) (Alpha=1.100).
 Cavity algorithm     : GePol (No added spheres)
                        Default sphere list used, NSphG=   22.
                        Lebedev-Laikov grids with approx.  5.0 points / Ang**2.
                        Smoothing algorithm: York/Karplus (Gamma=1.0000).
                        Polarization charges: spherical gaussians, with
                                              point-specific exponents (IZeta= 3).
                        Self-potential: point-specific (ISelfS= 7).
                        Self-field    : sphere-specific E.n sum rule (ISelfD= 2).
 1st derivatives      : Analytical E(r).r(x)/FMM algorithm (CHGder, D1EAlg=3).
                        Cavity 1st derivative terms included.
 2nd derivatives      : Analytical E(r).r(xy)/FMM algorithm (CHGder, D2EAlg=3).
                        Cavity 2nd derivative terms included.
 Solvent              : Cis-Decalin, Eps=   2.213900 Eps(inf)=   2.193361
 ------------------------------------------------------------------------------
 One-electron integrals computed using PRISM.
 NBasis=   252 RedAO= T EigKep=  5.28D-04  NBF=   252
 NBsUse=   252 1.00D-06 EigRej= -1.00D+00 NBFU=   252
 ExpMin= 1.03D-01 ExpMax= 4.56D+03 ExpMxC= 6.82D+02 IAcc=3 IRadAn=         5 AccDes= 0.00D+00
 Harris functional with IExCor=  402 and IRadAn=       5 diagonalized for initial guess.
 HarFok:  IExCor=  402 AccDes= 0.00D+00 IRadAn=         5 IDoV= 1 UseB2=F ITyADJ=14
 ICtDFT=  3500011 ScaDFX=  1.000000  1.000000  1.000000  1.000000
 FoFCou: FMM=F IPFlag=           0 FMFlag=      100000 FMFlg1=           0
         NFxFlg=           0 DoJE=T BraDBF=F KetDBF=T FulRan=T
         wScrn=  0.000000 ICntrl=       500 IOpCl=  0 I1Cent=   200000004 NGrid=           0
         NMat0=    1 NMatS0=      1 NMatT0=    0 NMatD0=    1 NMtDS0=    0 NMtDT0=    0
 Petite list used in FoFCou.
 Requested convergence on RMS density matrix=1.00D-08 within 128 cycles.
 Requested convergence on MAX density matrix=1.00D-06.
 Requested convergence on             energy=1.00D-06.
 No special actions if energy rises.
 Inv3:  Mode=1 IEnd=     7059468.
 Iteration    1 A*A^-1 deviation from unit magnitude is 7.11D-15 for    323.
 Iteration    1 A*A^-1 deviation from orthogonality  is 2.47D-15 for   1525    980.
 Iteration    1 A^-1*A deviation from unit magnitude is 7.33D-15 for    323.
 Iteration    1 A^-1*A deviation from orthogonality  is 1.59D-15 for   1495    673.
 Error on total polarization charges =  0.00622
 SCF Done:  E(RB3LYP) =  -388.319300088     A.U. after   12 cycles
            NFock= 12  Conv=0.34D-08     -V/T= 2.0047
 DoSCS=F DFT=T ScalE2(SS,OS)=  1.000000  1.000000
 Range of M.O.s used for correlation:     1   252
 NBasis=   252 NAE=    36 NBE=    36 NFC=     0 NFV=     0
 NROrb=    252 NOA=    36 NOB=    36 NVA=   216 NVB=   216
 Symmetrizing basis deriv contribution to polar:
 IMax=3 JMax=2 DiffMx= 0.00D+00
 G2DrvN: will do    23 centers at a time, making    1 passes.
 Calling FoFCou, ICntrl=  3107 FMM=F I1Cent=   0 AccDes= 0.00D+00.
 NEqPCM:  Using equilibrium solvation (IEInf=0, Eps=   2.2139, EpsInf=   2.1934)
 G2PCM: DoFxE=T DoFxN=T DoGrad=T DoDP/DQ/DG/TGxP=FFFF NFrqRd=   0 IEInf=0 SqF1=F DoCFld=F IF1Alg=4.
 End of G2Drv F.D. properties file   721 does not exist.
 End of G2Drv F.D. properties file   722 does not exist.
 End of G2Drv F.D. properties file   788 does not exist.
          IDoAtm=1111111111111111111111
 NEqPCM:  Using equilibrium solvation (IEInf=0, Eps=   2.2139, EpsInf=   2.1934)
          Differentiating once with respect to electric field.
                with respect to dipole field.
          Differentiating once with respect to nuclear coordinates.
 Keep R1 ints in memory in canonical form, NReq=612588626.
          There are    69 degrees of freedom in the 1st order CPHF.  IDoFFX=6 NUNeed=     3.
     66 vectors produced by pass  0 Test12= 1.13D-14 1.45D-09 XBig12= 3.04D+02 1.55D+01.
 AX will form    66 AO Fock derivatives at one time.
     66 vectors produced by pass  1 Test12= 1.13D-14 1.45D-09 XBig12= 4.95D+01 1.26D+00.
     66 vectors produced by pass  2 Test12= 1.13D-14 1.45D-09 XBig12= 4.48D-01 1.15D-01.
     66 vectors produced by pass  3 Test12= 1.13D-14 1.45D-09 XBig12= 9.79D-04 5.65D-03.
     66 vectors produced by pass  4 Test12= 1.13D-14 1.45D-09 XBig12= 1.75D-06 2.30D-04.
     48 vectors produced by pass  5 Test12= 1.13D-14 1.45D-09 XBig12= 1.86D-09 5.06D-06.
      6 vectors produced by pass  6 Test12= 1.13D-14 1.45D-09 XBig12= 1.89D-12 2.28D-07.
      3 vectors produced by pass  7 Test12= 1.13D-14 1.45D-09 XBig12= 1.82D-15 5.46D-09.
 InvSVY:  IOpt=1 It=  1 EMax= 1.07D-14
 Solved reduced A of dimension   387 with    69 vectors.
 Isotropic polarizability for W=    0.000000      133.47 Bohr**3.
 End of Minotr F.D. properties file   721 does not exist.
 End of Minotr F.D. properties file   722 does not exist.
 End of Minotr F.D. properties file   788 does not exist.

 **********************************************************************

            Population analysis using the SCF density.

 **********************************************************************

 Orbital symmetries:
       Occupied  (A) (A) (A) (A) (A) (A) (A) (A) (A) (A) (A) (A)
                 (A) (A) (A) (A) (A) (A) (A) (A) (A) (A) (A) (A)
                 (A) (A) (A) (A) (A) (A) (A) (A) (A) (A) (A) (A)
       Virtual   (A) (A) (A) (A) (A) (A) (A) (A) (A) (A) (A) (A)
                 (A) (A) (A) (A) (A) (A) (A) (A) (A) (A) (A) (A)
                 (A) (A) (A) (A) (A) (A) (A) (A) (A) (A) (A) (A)
                 (A) (A) (A) (A) (A) (A) (A) (A) (A) (A) (A) (A)
                 (A) (A) (A) (A) (A) (A) (A) (A) (A) (A) (A) (A)
                 (A) (A) (A) (A) (A) (A) (A) (A) (A) (A) (A) (A)
                 (A) (A) (A) (A) (A) (A) (A) (A) (A) (A) (A) (A)
                 (A) (A) (A) (A) (A) (A) (A) (A) (A) (A) (A) (A)
                 (A) (A) (A) (A) (A) (A) (A) (A) (A) (A) (A) (A)
                 (A) (A) (A) (A) (A) (A) (A) (A) (A) (A) (A) (A)
                 (A) (A) (A) (A) (A) (A) (A) (A) (A) (A) (A) (A)
                 (A) (A) (A) (A) (A) (A) (A) (A) (A) (A) (A) (A)
                 (A) (A) (A) (A) (A) (A) (A) (A) (A) (A) (A) (A)
                 (A) (A) (A) (A) (A) (A) (A) (A) (A) (A) (A) (A)
                 (A) (A) (A) (A) (A) (A) (A) (A) (A) (A) (A) (A)
                 (A) (A) (A) (A) (A) (A) (A) (A) (A) (A) (A) (A)
                 (A) (A) (A) (A) (A) (A) (A) (A) (A) (A) (A) (A)
                 (A) (A) (A) (A) (A) (A) (A) (A) (A) (A) (A) (A)
 The electronic state is 1-A.
 Alpha  occ. eigenvalues --  -10.17911 -10.17910 -10.16876 -10.16876 -10.16466
 Alpha  occ. eigenvalues --  -10.16466 -10.16083 -10.16081 -10.16001 -10.16000
 Alpha  occ. eigenvalues --   -0.86874  -0.83911  -0.71906  -0.70642  -0.69101
 Alpha  occ. eigenvalues --   -0.68270  -0.56015  -0.55051  -0.53177  -0.51604
 Alpha  occ. eigenvalues --   -0.51531  -0.50018  -0.45305  -0.42212  -0.39239
 Alpha  occ. eigenvalues --   -0.38022  -0.37502  -0.36999  -0.36386  -0.36006
 Alpha  occ. eigenvalues --   -0.35690  -0.34222  -0.31834  -0.26595  -0.25926
 Alpha  occ. eigenvalues --   -0.18106
 Alpha virt. eigenvalues --   -0.04060   0.03085   0.03126   0.04677   0.07397
 Alpha virt. eigenvalues --    0.07760   0.07800   0.09626   0.09767   0.10863
 Alpha virt. eigenvalues --    0.10911   0.12676   0.12798   0.14944   0.15074
 Alpha virt. eigenvalues --    0.17746   0.18666   0.19917   0.21863   0.22716
 Alpha virt. eigenvalues --    0.26476   0.27663   0.30573   0.31162   0.31816
 Alpha virt. eigenvalues --    0.32756   0.35373   0.37918   0.38150   0.38520
 Alpha virt. eigenvalues --    0.39297   0.40584   0.41634   0.42063   0.43255
 Alpha virt. eigenvalues --    0.44453   0.45086   0.45583   0.46519   0.49667
 Alpha virt. eigenvalues --    0.50146   0.52093   0.54961   0.55287   0.56060
 Alpha virt. eigenvalues --    0.56349   0.58764   0.59127   0.59676   0.59764
 Alpha virt. eigenvalues --    0.60571   0.61239   0.61950   0.63635   0.64101
 Alpha virt. eigenvalues --    0.64554   0.65700   0.66400   0.67911   0.69776
 Alpha virt. eigenvalues --    0.70138   0.70756   0.71703   0.74319   0.75776
 Alpha virt. eigenvalues --    0.78520   0.81005   0.82483   0.85944   0.87189
 Alpha virt. eigenvalues --    0.88240   0.91089   0.92761   0.97641   0.99308
 Alpha virt. eigenvalues --    1.04719   1.05360   1.06220   1.09790   1.14730
 Alpha virt. eigenvalues --    1.15057   1.19495   1.19616   1.22552   1.22624
 Alpha virt. eigenvalues --    1.26220   1.30303   1.33712   1.38636   1.42200
 Alpha virt. eigenvalues --    1.46281   1.48275   1.49382   1.49924   1.51416
 Alpha virt. eigenvalues --    1.51845   1.52869   1.54269   1.55845   1.57407
 Alpha virt. eigenvalues --    1.58440   1.59421   1.59943   1.60621   1.61410
 Alpha virt. eigenvalues --    1.64034   1.64765   1.67167   1.67908   1.71530
 Alpha virt. eigenvalues --    1.72047   1.73054   1.74452   1.76317   1.77489
 Alpha virt. eigenvalues --    1.77644   1.82012   1.82491   1.82920   1.83692
 Alpha virt. eigenvalues --    1.84172   1.86414   1.86428   1.87595   1.89103
 Alpha virt. eigenvalues --    1.92261   1.92518   1.94045   1.97579   1.98214
 Alpha virt. eigenvalues --    2.00331   2.00871   2.02051   2.06197   2.07671
 Alpha virt. eigenvalues --    2.13175   2.13456   2.16790   2.17036   2.17623
 Alpha virt. eigenvalues --    2.22027   2.22485   2.26848   2.30027   2.33162
 Alpha virt. eigenvalues --    2.35182   2.36806   2.37498   2.40295   2.41959
 Alpha virt. eigenvalues --    2.44870   2.45580   2.48707   2.49848   2.50903
 Alpha virt. eigenvalues --    2.52908   2.60444   2.60515   2.60526   2.62755
 Alpha virt. eigenvalues --    2.64230   2.67652   2.68288   2.69417   2.70706
 Alpha virt. eigenvalues --    2.71178   2.74367   2.75062   2.76813   2.78527
 Alpha virt. eigenvalues --    2.80902   2.84346   2.87151   2.90642   2.91758
 Alpha virt. eigenvalues --    2.92182   2.93206   2.96042   3.00496   3.04723
 Alpha virt. eigenvalues --    3.09061   3.09218   3.10940   3.17906   3.19603
 Alpha virt. eigenvalues --    3.30935   3.32759   3.40444   3.43116   3.44647
 Alpha virt. eigenvalues --    3.46465   3.49954   3.54432   3.60028   3.77267
 Alpha virt. eigenvalues --    3.79804   4.03476   4.03827   4.06710   4.08957
 Alpha virt. eigenvalues --    4.09359   4.13444   4.15786   4.19719   4.49576
 Alpha virt. eigenvalues --    4.51981  23.63536  23.75590  23.89064  23.89381
 Alpha virt. eigenvalues --   23.91221  23.99980  24.07964  24.09919  24.19396
 Alpha virt. eigenvalues --   24.19879
          Condensed to atoms (all electrons):
               1          2          3          4          5          6
     1  C    4.865567   0.468403  -0.076853  -0.009168   0.007360   0.551806
     2  C    0.468403   5.057672   0.478091  -0.061658  -0.058717  -0.092622
     3  C   -0.076853   0.478091   5.204741   0.144187  -0.061658  -0.089033
     4  C   -0.009168  -0.061658   0.144187   5.204739   0.478092  -0.017016
     5  C    0.007360  -0.058717  -0.061658   0.478092   5.057677   0.046332
     6  C    0.551806  -0.092622  -0.089033  -0.017016   0.046332   5.099709
     7  C   -0.016427   0.007361  -0.009167  -0.076852   0.468398  -0.011374
     8  C   -0.011372   0.046326  -0.017014  -0.089032  -0.092621  -0.003531
     9  C    0.000456  -0.013135  -0.042615   0.375035  -0.092262   0.000912
    10  C   -0.088853  -0.092262   0.375033  -0.042615  -0.013136   0.368392
    11  H    0.421529  -0.044540   0.006629  -0.000197   0.000300  -0.045366
    12  H   -0.036580   0.419637  -0.040658  -0.001383   0.000224   0.006461
    13  H    0.007697  -0.035949   0.407507  -0.022239   0.004256   0.006362
    14  H   -0.000184   0.004256  -0.022240   0.407507  -0.035949  -0.000231
    15  H   -0.000490   0.000224  -0.001383  -0.040658   0.419637   0.002467
    16  H   -0.038156   0.008446   0.005090   0.000314  -0.001651   0.416978
    17  H    0.001913   0.000300  -0.000197   0.006629  -0.044540   0.000496
    18  H    0.000141  -0.001650   0.000314   0.005090   0.008446   0.000044
    19  H   -0.000224   0.003645   0.007099  -0.031232  -0.000148  -0.000251
    20  H    0.000849  -0.003700  -0.003790  -0.042908   0.008467   0.000115
    21  H   -0.002015  -0.000148  -0.031232   0.007100   0.003645  -0.037777
    22  H    0.005740   0.008467  -0.042908  -0.003790  -0.003700  -0.037045
               7          8          9         10         11         12
     1  C   -0.016427  -0.011372   0.000456  -0.088853   0.421529  -0.036580
     2  C    0.007361   0.046326  -0.013135  -0.092262  -0.044540   0.419637
     3  C   -0.009167  -0.017014  -0.042615   0.375033   0.006629  -0.040658
     4  C   -0.076852  -0.089032   0.375035  -0.042615  -0.000197  -0.001383
     5  C    0.468398  -0.092621  -0.092262  -0.013136   0.000300   0.000224
     6  C   -0.011374  -0.003531   0.000912   0.368392  -0.045366   0.006461
     7  C    4.865564   0.551813  -0.088853   0.000456   0.001913  -0.000490
     8  C    0.551813   5.099701   0.368391   0.000911   0.000496   0.002467
     9  C   -0.088853   0.368391   4.893744   0.004666  -0.000077  -0.000049
    10  C    0.000456   0.000911   0.004666   4.893749   0.008579   0.006641
    11  H    0.001913   0.000496  -0.000077   0.008579   0.573280  -0.003048
    12  H   -0.000490   0.002467  -0.000049   0.006641  -0.003048   0.550316
    13  H   -0.000184  -0.000231  -0.002969  -0.029254  -0.000275  -0.003833
    14  H    0.007697   0.006362  -0.029254  -0.002969   0.000034  -0.000085
    15  H   -0.036579   0.006461   0.006641  -0.000049  -0.000047   0.000003
    16  H    0.000141   0.000044   0.000001  -0.037486  -0.004860  -0.000316
    17  H    0.421529  -0.045366   0.008579  -0.000077   0.000108  -0.000047
    18  H   -0.038156   0.416978  -0.037486   0.000001   0.000020   0.000294
    19  H   -0.002015  -0.037777   0.387120  -0.000271  -0.000001   0.000117
    20  H    0.005739  -0.037045   0.409630   0.000534  -0.000011  -0.000186
    21  H   -0.000224  -0.000251  -0.000271   0.387120  -0.000419  -0.000296
    22  H    0.000849   0.000115   0.000534   0.409631  -0.000261  -0.000297
              13         14         15         16         17         18
     1  C    0.007697  -0.000184  -0.000490  -0.038156   0.001913   0.000141
     2  C   -0.035949   0.004256   0.000224   0.008446   0.000300  -0.001650
     3  C    0.407507  -0.022240  -0.001383   0.005090  -0.000197   0.000314
     4  C   -0.022239   0.407507  -0.040658   0.000314   0.006629   0.005090
     5  C    0.004256  -0.035949   0.419637  -0.001651  -0.044540   0.008446
     6  C    0.006362  -0.000231   0.002467   0.416978   0.000496   0.000044
     7  C   -0.000184   0.007697  -0.036579   0.000141   0.421529  -0.038156
     8  C   -0.000231   0.006362   0.006461   0.000044  -0.045366   0.416978
     9  C   -0.002969  -0.029254   0.006641   0.000001   0.008579  -0.037486
    10  C   -0.029254  -0.002969  -0.000049  -0.037486  -0.000077   0.000001
    11  H   -0.000275   0.000034  -0.000047  -0.004860   0.000108   0.000020
    12  H   -0.003833  -0.000085   0.000003  -0.000316  -0.000047   0.000294
    13  H    0.549367  -0.003230  -0.000085  -0.000322   0.000034   0.000022
    14  H   -0.003230   0.549366  -0.003833   0.000022  -0.000275  -0.000322
    15  H   -0.000085  -0.003833   0.550314   0.000294  -0.003047  -0.000316
    16  H   -0.000322   0.000022   0.000294   0.558841   0.000020  -0.000000
    17  H    0.000034  -0.000275  -0.003047   0.000020   0.573280  -0.004860
    18  H    0.000022  -0.000322  -0.000316  -0.000000  -0.004860   0.558841
    19  H   -0.000357  -0.002101  -0.000296   0.000001  -0.000419   0.000360
    20  H    0.002360  -0.000787  -0.000297  -0.000005  -0.000261  -0.002014
    21  H   -0.002101  -0.000357   0.000117   0.000360  -0.000001   0.000001
    22  H   -0.000787   0.002360  -0.000186  -0.002014  -0.000011  -0.000005
              19         20         21         22
     1  C   -0.000224   0.000849  -0.002015   0.005740
     2  C    0.003645  -0.003700  -0.000148   0.008467
     3  C    0.007099  -0.003790  -0.031232  -0.042908
     4  C   -0.031232  -0.042908   0.007100  -0.003790
     5  C   -0.000148   0.008467   0.003645  -0.003700
     6  C   -0.000251   0.000115  -0.037777  -0.037045
     7  C   -0.002015   0.005739  -0.000224   0.000849
     8  C   -0.037777  -0.037045  -0.000251   0.000115
     9  C    0.387120   0.409630  -0.000271   0.000534
    10  C   -0.000271   0.000534   0.387120   0.409631
    11  H   -0.000001  -0.000011  -0.000419  -0.000261
    12  H    0.000117  -0.000186  -0.000296  -0.000297
    13  H   -0.000357   0.002360  -0.002101  -0.000787
    14  H   -0.002101  -0.000787  -0.000357   0.002360
    15  H   -0.000296  -0.000297   0.000117  -0.000186
    16  H    0.000001  -0.000005   0.000360  -0.002014
    17  H   -0.000419  -0.000261  -0.000001  -0.000011
    18  H    0.000360  -0.002014   0.000001  -0.000005
    19  H    0.578558  -0.032324  -0.000004  -0.000050
    20  H   -0.032324   0.577957  -0.000050  -0.000019
    21  H   -0.000004  -0.000050   0.578558  -0.032324
    22  H   -0.000050  -0.000019  -0.032324   0.577957
 Mulliken charges:
               1
     1  C   -0.051139
     2  C   -0.098449
     3  C   -0.189944
     4  C   -0.189944
     5  C   -0.098453
     6  C   -0.165829
     7  C   -0.051139
     8  C   -0.165827
     9  C   -0.148740
    10  C   -0.148740
    11  H    0.086211
    12  H    0.101106
    13  H    0.124209
    14  H    0.124210
    15  H    0.101108
    16  H    0.094258
    17  H    0.086211
    18  H    0.094258
    19  H    0.130568
    20  H    0.117748
    21  H    0.130569
    22  H    0.117747
 Sum of Mulliken charges =  -0.00000
 Mulliken charges with hydrogens summed into heavy atoms:
               1
     1  C    0.035073
     2  C    0.002657
     3  C   -0.065736
     4  C   -0.065734
     5  C    0.002655
     6  C   -0.071571
     7  C    0.035073
     8  C   -0.071569
     9  C    0.099577
    10  C    0.099576
 APT charges:
               1
     1  C   -0.014170
     2  C   -0.140812
     3  C    0.088851
     4  C    0.088841
     5  C   -0.140802
     6  C   -0.031407
     7  C   -0.014168
     8  C   -0.031414
     9  C    0.015473
    10  C    0.015473
    11  H    0.040826
    12  H    0.049848
    13  H    0.000505
    14  H    0.000505
    15  H    0.049846
    16  H    0.018123
    17  H    0.040825
    18  H    0.018126
    19  H   -0.031473
    20  H    0.004240
    21  H   -0.031474
    22  H    0.004239
 Sum of APT charges =   0.00000
 APT charges with hydrogens summed into heavy atoms:
               1
     1  C    0.026656
     2  C   -0.090964
     3  C    0.089356
     4  C    0.089346
     5  C   -0.090956
     6  C   -0.013284
     7  C    0.026656
     8  C   -0.013288
     9  C   -0.011760
    10  C   -0.011762
 Electronic spatial extent (au):  <R**2>=           1173.2875
 Charge=             -0.0000 electrons
 Dipole moment (field-independent basis, Debye):
    X=             -0.0000    Y=             -0.5594    Z=             -0.0000  Tot=              0.5594
 Quadrupole moment (field-independent basis, Debye-Ang):
   XX=            -62.7525   YY=            -57.0593   ZZ=            -59.8301
   XY=              0.0001   XZ=             -3.9073   YZ=              0.0000
 Traceless Quadrupole moment (field-independent basis, Debye-Ang):
   XX=             -2.8719   YY=              2.8213   ZZ=              0.0505
   XY=              0.0001   XZ=             -3.9073   YZ=              0.0000
 Octapole moment (field-independent basis, Debye-Ang**2):
  XXX=             -0.0003  YYY=              2.2812  ZZZ=             -0.0001  XYY=             -0.0000
  XXY=             -2.2066  XXZ=              0.0000  XZZ=             -0.0000  YZZ=              1.0570
  YYZ=             -0.0001  XYZ=             -1.0740
 Hexadecapole moment (field-independent basis, Debye-Ang**3):
 XXXX=           -897.0907 YYYY=           -389.6230 ZZZZ=           -347.3274 XXXY=              0.0001
 XXXZ=            -25.8125 YYYX=             -0.0000 YYYZ=              0.0001 ZZZX=            -18.0004
 ZZZY=             -0.0000 XXYY=           -209.8184 XXZZ=           -212.6937 YYZZ=           -122.9646
 XXYZ=              0.0004 YYXZ=             -1.1353 ZZXY=              0.0004
 N-N= 5.217246413881D+02 E-N=-1.944041662105D+03  KE= 3.864907824883D+02
  Exact polarizability: 164.051   0.000 118.348  -2.653  -0.000 118.025
 Approx polarizability: 256.813   0.001 172.165   4.347  -0.001 198.693
 D2PCM: PCM CHGder 2nd derivatives, FixD1E=F FixD2E=F DoIter=F DoCFld=F I1PDM=0
 Calling FoFJK, ICntrl=    100127 FMM=F ISym2X=0 I1Cent= 0 IOpClX= 0 NMat=1 NMatS=1 NMatT=0.
 Full mass-weighted force constant matrix:
 Low frequencies --- -425.6912   -7.2941   -6.7718   -0.0004   -0.0004    0.0002
 Low frequencies ---   11.5904   95.2983  143.5773
 ******    1 imaginary frequencies (negative Signs) ****** 
 Diagonal vibrational polarizability:
        8.3017628       2.2316332       8.3412904
 Harmonic frequencies (cm**-1), IR intensities (KM/Mole), Raman scattering
 activities (A**4/AMU), depolarization ratios for plane and unpolarized
 incident light, reduced masses (AMU), force constants (mDyne/A),
 and normal coordinates:
                      1                      2                      3
                      A                      A                      A
 Frequencies --   -425.6912                95.2929               143.5752
 Red. masses --      9.2478                 4.5940                 3.3222
 Frc consts  --      0.9874                 0.0246                 0.0403
 IR Inten    --      1.1076                 1.2130                 0.0305
  Atom  AN      X      Y      Z        X      Y      Z        X      Y      Z
     1   6     0.02   0.04  -0.06     0.03   0.06   0.00     0.09   0.03  -0.12
     2   6     0.12  -0.07   0.05    -0.19   0.09  -0.11    -0.00   0.14  -0.04
     3   6     0.45  -0.01   0.36    -0.10   0.08  -0.08    -0.06   0.07   0.06
     4   6    -0.45  -0.01  -0.36    -0.10  -0.08  -0.08     0.06   0.07  -0.06
     5   6    -0.12  -0.07  -0.05    -0.19  -0.09  -0.11     0.00   0.14   0.04
     6   6     0.10   0.02   0.04     0.23   0.03   0.14     0.11  -0.12  -0.05
     7   6    -0.02   0.04   0.06     0.03  -0.06   0.00    -0.09   0.03   0.12
     8   6    -0.10   0.02  -0.04     0.23  -0.03   0.14    -0.11  -0.12   0.05
     9   6    -0.05   0.02  -0.04     0.02  -0.04   0.04    -0.01  -0.11  -0.09
    10   6     0.05   0.02   0.04     0.02   0.04   0.04     0.01  -0.11   0.09
    11   1    -0.11   0.04  -0.11     0.07   0.06   0.02     0.15   0.07  -0.23
    12   1    -0.04   0.02  -0.03    -0.19   0.08  -0.10    -0.02   0.26  -0.06
    13   1    -0.00  -0.08   0.06    -0.12   0.09  -0.06    -0.14   0.11   0.14
    14   1     0.00  -0.08  -0.06    -0.12  -0.09  -0.06     0.14   0.11  -0.14
    15   1     0.04   0.02   0.03    -0.19  -0.08  -0.10     0.02   0.26   0.06
    16   1     0.07  -0.00   0.00     0.39   0.01   0.23     0.19  -0.23  -0.08
    17   1     0.11   0.04   0.11     0.07  -0.06   0.02    -0.15   0.07   0.23
    18   1    -0.07  -0.00  -0.00     0.39  -0.01   0.23    -0.19  -0.23   0.08
    19   1    -0.15   0.03   0.19    -0.06   0.13   0.08     0.03  -0.13  -0.17
    20   1     0.13   0.01  -0.07     0.04  -0.14  -0.02    -0.02  -0.19  -0.12
    21   1     0.15   0.03  -0.19    -0.06  -0.13   0.08    -0.03  -0.13   0.17
    22   1    -0.13   0.01   0.07     0.04   0.14  -0.02     0.02  -0.19   0.12
                      4                      5                      6
                      A                      A                      A
 Frequencies --    180.4659               268.0948               330.6024
 Red. masses --      3.9619                 3.2323                 3.5767
 Frc consts  --      0.0760                 0.1369                 0.2303
 IR Inten    --      0.4177                 0.0029                 0.0639
  Atom  AN      X      Y      Z        X      Y      Z        X      Y      Z
     1   6     0.21  -0.03   0.11     0.16   0.06   0.06     0.11  -0.01   0.11
     2   6     0.10  -0.03   0.01     0.07   0.09   0.04     0.05   0.03   0.13
     3   6    -0.00   0.02  -0.08    -0.06   0.09   0.02    -0.05   0.04   0.12
     4   6     0.00   0.02   0.08    -0.06  -0.09   0.02     0.05   0.04  -0.12
     5   6    -0.10  -0.03  -0.01     0.07  -0.09   0.04    -0.05   0.03  -0.13
     6   6     0.21   0.02   0.09    -0.02   0.06  -0.02    -0.14  -0.03  -0.00
     7   6    -0.21  -0.03  -0.11     0.16  -0.06   0.06    -0.11  -0.01  -0.11
     8   6    -0.21   0.02  -0.09    -0.02  -0.06  -0.02     0.14  -0.03   0.00
     9   6    -0.03   0.02   0.06    -0.15  -0.06  -0.09     0.17  -0.03  -0.02
    10   6     0.03   0.02  -0.06    -0.15   0.06  -0.09    -0.17  -0.03   0.02
    11   1     0.33  -0.06   0.22     0.35   0.04   0.14     0.28  -0.02   0.16
    12   1     0.07  -0.06  -0.00     0.17   0.08   0.09     0.19   0.03   0.20
    13   1     0.01   0.01  -0.11    -0.02   0.10   0.06    -0.14   0.04   0.10
    14   1    -0.01   0.01   0.11    -0.02  -0.10   0.06     0.14   0.04  -0.10
    15   1    -0.07  -0.06   0.00     0.17  -0.08   0.09    -0.19   0.03  -0.20
    16   1     0.30   0.03   0.17    -0.02   0.04  -0.04    -0.20  -0.06  -0.07
    17   1    -0.33  -0.06  -0.22     0.35  -0.04   0.14    -0.28  -0.02  -0.16
    18   1    -0.30   0.03  -0.17    -0.02  -0.04  -0.04     0.20  -0.06   0.07
    19   1     0.02  -0.14   0.10    -0.13   0.03  -0.24     0.12  -0.02   0.10
    20   1     0.02   0.15   0.12    -0.31  -0.12  -0.10     0.31  -0.05  -0.05
    21   1    -0.02  -0.14  -0.10    -0.13  -0.03  -0.24    -0.12  -0.02  -0.10
    22   1    -0.02   0.15  -0.12    -0.31   0.12  -0.10    -0.31  -0.05   0.05
                      7                      8                      9
                      A                      A                      A
 Frequencies --    418.7763               444.0742               559.1941
 Red. masses --      1.9877                 1.8745                 2.8696
 Frc consts  --      0.2054                 0.2178                 0.5287
 IR Inten    --      0.1625                 0.6725                 1.7997
  Atom  AN      X      Y      Z        X      Y      Z        X      Y      Z
     1   6    -0.06   0.00  -0.02     0.08  -0.01   0.05    -0.13   0.04  -0.06
     2   6    -0.10   0.02  -0.03     0.00   0.01  -0.03     0.17  -0.03   0.11
     3   6    -0.00   0.01   0.02    -0.08   0.02  -0.07    -0.08   0.02  -0.02
     4   6     0.00   0.01  -0.02    -0.08  -0.02  -0.07     0.08   0.02   0.02
     5   6     0.10   0.02   0.03     0.00  -0.01  -0.03    -0.17  -0.03  -0.11
     6   6     0.05  -0.02   0.05    -0.08   0.02  -0.06     0.08  -0.01   0.07
     7   6     0.06   0.00   0.02     0.08   0.01   0.05     0.13   0.04   0.06
     8   6    -0.05  -0.02  -0.05    -0.08  -0.02  -0.06    -0.08  -0.01  -0.07
     9   6     0.12  -0.01   0.09     0.04  -0.02   0.07     0.02  -0.01  -0.02
    10   6    -0.12  -0.01  -0.08     0.04   0.02   0.07    -0.02  -0.01   0.02
    11   1    -0.08   0.01  -0.05     0.21  -0.04   0.14    -0.36   0.08  -0.20
    12   1    -0.21   0.06  -0.09    -0.04   0.01  -0.05     0.35  -0.07   0.20
    13   1    -0.05   0.01  -0.01    -0.12   0.02  -0.08    -0.05   0.01  -0.03
    14   1     0.05   0.01   0.01    -0.12  -0.02  -0.08     0.05   0.01   0.03
    15   1     0.21   0.06   0.09    -0.04  -0.01  -0.05    -0.35  -0.07  -0.20
    16   1     0.13  -0.02   0.10    -0.07   0.01  -0.06    -0.04  -0.01  -0.01
    17   1     0.08   0.01   0.05     0.21   0.04   0.14     0.36   0.08   0.20
    18   1    -0.13  -0.02  -0.10    -0.07  -0.01  -0.06     0.04  -0.01   0.01
    19   1     0.10  -0.23   0.35    -0.00  -0.23   0.39     0.09  -0.20  -0.00
    20   1     0.37   0.15   0.12     0.34   0.17   0.11     0.08   0.12   0.03
    21   1    -0.10  -0.23  -0.35    -0.00   0.23   0.39    -0.09  -0.20   0.00
    22   1    -0.37   0.15  -0.12     0.34  -0.17   0.11    -0.08   0.12  -0.03
                     10                     11                     12
                      A                      A                      A
 Frequencies --    598.3134               706.3709               708.2730
 Red. masses --      2.3843                 1.2610                 1.2021
 Frc consts  --      0.5029                 0.3707                 0.3553
 IR Inten    --      1.7315                 1.5846                70.3647
  Atom  AN      X      Y      Z        X      Y      Z        X      Y      Z
     1   6    -0.08   0.05  -0.06    -0.04  -0.01  -0.04    -0.04  -0.02  -0.04
     2   6     0.14  -0.03   0.05     0.00  -0.02  -0.01    -0.00  -0.01   0.00
     3   6    -0.12   0.02  -0.07    -0.00  -0.01   0.02     0.02  -0.01   0.03
     4   6    -0.12  -0.02  -0.07     0.00  -0.01  -0.02     0.02   0.01   0.03
     5   6     0.14   0.03   0.05    -0.00  -0.02   0.01    -0.00   0.01   0.00
     6   6     0.07   0.02   0.03    -0.01   0.02  -0.04    -0.02   0.02  -0.04
     7   6    -0.08  -0.05  -0.06     0.04  -0.01   0.04    -0.04   0.02  -0.04
     8   6     0.07  -0.02   0.03     0.01   0.02   0.04    -0.02  -0.02  -0.04
     9   6    -0.03  -0.01   0.03     0.06   0.03  -0.01    -0.03  -0.02  -0.00
    10   6    -0.03   0.01   0.03    -0.06   0.03   0.01    -0.03   0.02  -0.00
    11   1    -0.20   0.06  -0.13     0.17  -0.06   0.13     0.20  -0.06   0.13
    12   1     0.47  -0.11   0.22     0.18  -0.03   0.08     0.14  -0.02   0.07
    13   1    -0.10   0.01  -0.09    -0.00  -0.03  -0.02     0.04  -0.03  -0.01
    14   1    -0.10  -0.01  -0.09     0.00  -0.03   0.02     0.04   0.03  -0.01
    15   1     0.47   0.11   0.22    -0.18  -0.03  -0.08     0.14   0.02   0.07
    16   1     0.00  -0.00  -0.03     0.52  -0.04   0.29     0.52  -0.04   0.30
    17   1    -0.20  -0.06  -0.13    -0.17  -0.06  -0.13     0.20   0.06   0.13
    18   1     0.00   0.00  -0.03    -0.52  -0.04  -0.29     0.53   0.04   0.30
    19   1    -0.13   0.07   0.20     0.05   0.15  -0.10    -0.00  -0.14   0.04
    20   1     0.11  -0.05  -0.01    -0.04  -0.09  -0.05     0.02   0.09   0.04
    21   1    -0.13  -0.07   0.20    -0.05   0.15   0.10    -0.00   0.14   0.04
    22   1     0.11   0.05  -0.01     0.04  -0.09   0.05     0.02  -0.09   0.04
                     13                     14                     15
                      A                      A                      A
 Frequencies --    751.5142               758.9436               798.9703
 Red. masses --      1.3390                 1.4251                 3.2543
 Frc consts  --      0.4456                 0.4836                 1.2240
 IR Inten    --     78.5977                 0.0343                 0.0135
  Atom  AN      X      Y      Z        X      Y      Z        X      Y      Z
     1   6     0.01  -0.01   0.00    -0.02   0.03   0.02    -0.05  -0.05   0.02
     2   6    -0.10   0.02  -0.03    -0.07   0.05  -0.04     0.00   0.05   0.16
     3   6     0.03   0.01   0.00     0.03  -0.01  -0.00     0.04   0.14  -0.04
     4   6     0.03  -0.01   0.00    -0.03  -0.01   0.00    -0.04   0.14   0.04
     5   6    -0.10  -0.02  -0.03     0.07   0.05   0.04    -0.00   0.05  -0.16
     6   6    -0.01  -0.02   0.01    -0.01  -0.03   0.04    -0.09  -0.07  -0.01
     7   6     0.01   0.01   0.00     0.02   0.03  -0.02     0.05  -0.05  -0.02
     8   6    -0.01   0.02   0.01     0.01  -0.03  -0.04     0.09  -0.07   0.01
     9   6     0.02   0.02  -0.01    -0.05  -0.04   0.02    -0.14  -0.07   0.10
    10   6     0.02  -0.02  -0.01     0.05  -0.04  -0.02     0.14  -0.07  -0.10
    11   1     0.14  -0.02   0.04     0.11   0.03   0.03     0.10  -0.01  -0.10
    12   1     0.51  -0.22   0.29     0.51  -0.17   0.27    -0.22   0.06   0.04
    13   1     0.11   0.04   0.10     0.19   0.05   0.18    -0.14   0.11  -0.15
    14   1     0.11  -0.04   0.10    -0.19   0.05  -0.18     0.14   0.11   0.15
    15   1     0.51   0.22   0.29    -0.51  -0.17  -0.27     0.22   0.06  -0.04
    16   1    -0.18   0.01  -0.08    -0.03  -0.01   0.03     0.26   0.06   0.34
    17   1     0.14   0.02   0.04    -0.11   0.03  -0.03    -0.10  -0.01   0.10
    18   1    -0.18  -0.01  -0.08     0.03  -0.01  -0.03    -0.26   0.06  -0.34
    19   1     0.03  -0.01  -0.00    -0.07  -0.08   0.11    -0.18  -0.04   0.18
    20   1     0.04   0.04  -0.01     0.02   0.05   0.05    -0.01  -0.12   0.06
    21   1     0.03   0.01  -0.00     0.07  -0.08  -0.11     0.18  -0.04  -0.18
    22   1     0.04  -0.04  -0.01    -0.02   0.05  -0.05     0.01  -0.12  -0.06
                     16                     17                     18
                      A                      A                      A
 Frequencies --    818.7025               829.7597               833.6067
 Red. masses --      4.1718                 5.2377                 3.5948
 Frc consts  --      1.6475                 2.1247                 1.4718
 IR Inten    --      3.1472                35.1540                 2.5894
  Atom  AN      X      Y      Z        X      Y      Z        X      Y      Z
     1   6    -0.07   0.11   0.07    -0.02  -0.21  -0.04    -0.01   0.19   0.06
     2   6     0.05   0.08   0.04    -0.09   0.03   0.25     0.14   0.03  -0.09
     3   6     0.03   0.12  -0.12    -0.05   0.17   0.00     0.03  -0.09  -0.06
     4   6     0.03  -0.12  -0.12    -0.05  -0.17   0.00    -0.03  -0.09   0.06
     5   6     0.05  -0.08   0.04    -0.09  -0.03   0.25    -0.14   0.03   0.09
     6   6    -0.14  -0.11   0.09     0.06  -0.03  -0.09    -0.13  -0.02   0.08
     7   6    -0.07  -0.11   0.07    -0.02   0.21  -0.04     0.01   0.19  -0.06
     8   6    -0.14   0.11   0.09     0.06   0.03  -0.09     0.13  -0.02  -0.08
     9   6     0.10   0.15  -0.09     0.11  -0.07  -0.10     0.00  -0.11  -0.02
    10   6     0.10  -0.15  -0.09     0.11   0.07  -0.10    -0.00  -0.11   0.02
    11   1     0.19   0.14  -0.02     0.02  -0.15  -0.25     0.03   0.18   0.11
    12   1    -0.09  -0.11  -0.01    -0.15   0.18   0.21    -0.27   0.03  -0.30
    13   1    -0.12   0.20   0.00    -0.01   0.08  -0.20     0.03   0.00   0.16
    14   1    -0.12  -0.20   0.00    -0.01  -0.08  -0.20    -0.03   0.00  -0.16
    15   1    -0.09   0.11  -0.01    -0.15  -0.18   0.21     0.27   0.03   0.30
    16   1     0.19  -0.10   0.34    -0.05   0.24   0.05     0.23  -0.19   0.20
    17   1     0.19  -0.14  -0.02     0.02   0.15  -0.25    -0.03   0.18  -0.11
    18   1     0.19   0.10   0.34    -0.05  -0.24   0.05    -0.23  -0.19  -0.20
    19   1     0.10   0.14  -0.10     0.03   0.01   0.00    -0.08  -0.04   0.11
    20   1     0.08   0.06  -0.13     0.07   0.06  -0.03     0.01   0.02   0.05
    21   1     0.10  -0.14  -0.10     0.03  -0.01   0.00     0.08  -0.04  -0.11
    22   1     0.08  -0.06  -0.13     0.07  -0.06  -0.03    -0.01   0.02  -0.05
                     19                     20                     21
                      A                      A                      A
 Frequencies --    889.6674               918.4529               929.6545
 Red. masses --      1.9796                 1.8645                 1.5765
 Frc consts  --      0.9232                 0.9266                 0.8027
 IR Inten    --     14.0883                17.1524                 1.4198
  Atom  AN      X      Y      Z        X      Y      Z        X      Y      Z
     1   6    -0.01   0.04   0.02    -0.00  -0.00   0.01     0.02   0.01   0.01
     2   6    -0.02  -0.03  -0.04    -0.00   0.00   0.01    -0.01  -0.04  -0.06
     3   6     0.09   0.11  -0.06     0.08   0.04  -0.04    -0.02   0.03   0.01
     4   6    -0.09   0.11   0.06     0.08  -0.04  -0.04     0.02   0.03  -0.01
     5   6     0.02  -0.03   0.04    -0.00  -0.00   0.01     0.01  -0.04   0.06
     6   6     0.00  -0.05   0.05     0.02  -0.09   0.05    -0.01   0.09  -0.04
     7   6     0.01   0.04  -0.02    -0.00   0.00   0.01    -0.02   0.01  -0.01
     8   6    -0.00  -0.05  -0.05     0.02   0.09   0.05     0.01   0.09   0.04
     9   6     0.09  -0.03   0.03    -0.12  -0.05  -0.03    -0.04  -0.07  -0.03
    10   6    -0.09  -0.03  -0.03    -0.12   0.05  -0.03     0.04  -0.07   0.03
    11   1     0.02   0.05  -0.04    -0.00   0.04  -0.14    -0.13  -0.03   0.12
    12   1     0.02  -0.33   0.00    -0.13  -0.09  -0.04     0.14  -0.16   0.01
    13   1    -0.12   0.06  -0.25     0.41  -0.01  -0.07    -0.54   0.05  -0.09
    14   1     0.12   0.06   0.25     0.41   0.01  -0.07     0.54   0.05   0.09
    15   1    -0.02  -0.33  -0.00    -0.13   0.09  -0.04    -0.14  -0.16  -0.01
    16   1    -0.13  -0.09  -0.07    -0.04  -0.19  -0.07     0.02   0.15   0.02
    17   1    -0.02   0.05   0.04    -0.00  -0.04  -0.14     0.13  -0.03  -0.12
    18   1     0.13  -0.09   0.07    -0.04   0.19  -0.07    -0.02   0.15  -0.02
    19   1     0.20   0.06  -0.33    -0.20  -0.16   0.30    -0.06  -0.15   0.11
    20   1    -0.17  -0.23  -0.03     0.19   0.08  -0.01     0.16  -0.07  -0.06
    21   1    -0.20   0.06   0.33    -0.20   0.16   0.30     0.06  -0.15  -0.11
    22   1     0.17  -0.23   0.03     0.19  -0.08  -0.01    -0.16  -0.07   0.06
                     22                     23                     24
                      A                      A                      A
 Frequencies --    949.3095               952.8149               961.5140
 Red. masses --      1.4032                 1.4374                 1.5815
 Frc consts  --      0.7450                 0.7689                 0.8614
 IR Inten    --      1.6860                 5.3961                 9.1326
  Atom  AN      X      Y      Z        X      Y      Z        X      Y      Z
     1   6    -0.09   0.01  -0.04    -0.09   0.00  -0.03    -0.03   0.01  -0.05
     2   6     0.03  -0.00   0.01     0.03   0.00   0.00    -0.00  -0.02   0.02
     3   6    -0.01  -0.00   0.02    -0.01  -0.01   0.02     0.01   0.00  -0.03
     4   6     0.01  -0.00  -0.02    -0.01   0.01   0.02     0.01  -0.00  -0.03
     5   6    -0.03  -0.00  -0.01     0.03  -0.00   0.00    -0.00   0.02   0.02
     6   6     0.05   0.03   0.02     0.06   0.03   0.02    -0.02  -0.07   0.01
     7   6     0.09   0.01   0.04    -0.09  -0.00  -0.03    -0.03  -0.01  -0.05
     8   6    -0.05   0.03  -0.02     0.06  -0.03   0.02    -0.02   0.07   0.01
     9   6    -0.01  -0.04   0.04    -0.00   0.03  -0.05     0.03  -0.08   0.09
    10   6     0.01  -0.04  -0.04    -0.00  -0.03  -0.05     0.03   0.08   0.09
    11   1     0.47  -0.09   0.35     0.41  -0.10   0.35     0.39  -0.02   0.07
    12   1    -0.09   0.07  -0.06    -0.12   0.10  -0.08    -0.03  -0.00   0.01
    13   1    -0.04   0.04   0.10     0.05   0.03   0.13    -0.04  -0.07  -0.21
    14   1     0.04   0.04  -0.10     0.05  -0.03   0.13    -0.04   0.07  -0.21
    15   1     0.09   0.07   0.06    -0.12  -0.10  -0.08    -0.03   0.00   0.01
    16   1    -0.24   0.14  -0.10    -0.24   0.14  -0.10    -0.05  -0.26  -0.16
    17   1    -0.46  -0.09  -0.35     0.41   0.10   0.35     0.39   0.02   0.07
    18   1     0.24   0.14   0.10    -0.24  -0.14  -0.10    -0.05   0.26  -0.16
    19   1     0.02  -0.03  -0.05    -0.06   0.03   0.11     0.09   0.03  -0.18
    20   1    -0.06  -0.10   0.02     0.10   0.11  -0.03    -0.16  -0.32   0.01
    21   1    -0.02  -0.03   0.05    -0.06  -0.03   0.11     0.09  -0.03  -0.18
    22   1     0.06  -0.10  -0.02     0.10  -0.11  -0.03    -0.16   0.32   0.01
                     25                     26                     27
                      A                      A                      A
 Frequencies --    972.0198               983.1505               998.4460
 Red. masses --      1.6891                 1.8469                 1.4148
 Frc consts  --      0.9403                 1.0518                 0.8310
 IR Inten    --      0.0085                35.1357                 0.1578
  Atom  AN      X      Y      Z        X      Y      Z        X      Y      Z
     1   6    -0.02   0.01  -0.04     0.02   0.01  -0.01     0.01   0.02  -0.02
     2   6    -0.00  -0.03  -0.00     0.00   0.03   0.00    -0.01  -0.01  -0.01
     3   6     0.02   0.03  -0.05    -0.06  -0.10   0.06    -0.04  -0.04   0.05
     4   6    -0.02   0.03   0.05    -0.06   0.10   0.06     0.04  -0.04  -0.05
     5   6     0.00  -0.03   0.00     0.00  -0.03   0.00     0.01  -0.01   0.01
     6   6    -0.03  -0.06  -0.00    -0.01  -0.06   0.06    -0.01  -0.05   0.05
     7   6     0.02   0.01   0.04     0.02  -0.01  -0.01    -0.01   0.02   0.02
     8   6     0.03  -0.06   0.00    -0.01   0.06   0.06     0.01  -0.05  -0.05
     9   6    -0.03   0.07  -0.11     0.03  -0.05  -0.09    -0.01   0.05   0.07
    10   6     0.03   0.07   0.11     0.03   0.05  -0.09     0.01   0.05  -0.07
    11   1     0.33  -0.03   0.10     0.05   0.06  -0.16     0.09   0.05  -0.12
    12   1    -0.03  -0.11  -0.01     0.05   0.21   0.02     0.07  -0.00   0.03
    13   1    -0.05  -0.04  -0.24    -0.14  -0.07   0.12    -0.46  -0.03  -0.03
    14   1     0.05  -0.04   0.24    -0.14   0.07   0.12     0.46  -0.03   0.03
    15   1     0.03  -0.11   0.01     0.05  -0.21   0.02    -0.07  -0.00  -0.03
    16   1    -0.01  -0.26  -0.15    -0.00  -0.09   0.04    -0.03  -0.13  -0.02
    17   1    -0.33  -0.03  -0.10     0.05  -0.06  -0.16    -0.09   0.05   0.12
    18   1     0.01  -0.26   0.15    -0.00   0.09   0.04     0.03  -0.13   0.02
    19   1    -0.08  -0.10   0.18     0.11  -0.31  -0.02    -0.09   0.26   0.03
    20   1     0.23   0.29  -0.05     0.35  -0.21  -0.23    -0.27   0.21   0.19
    21   1     0.08  -0.10  -0.18     0.11   0.31  -0.02     0.09   0.26  -0.03
    22   1    -0.23   0.29   0.05     0.35   0.21  -0.23     0.27   0.21  -0.19
                     28                     29                     30
                      A                      A                      A
 Frequencies --   1032.8979              1081.1912              1086.0672
 Red. masses --      1.4791                 1.7249                 1.1927
 Frc consts  --      0.9297                 1.1880                 0.8289
 IR Inten    --     20.9414                 0.0206                 2.4023
  Atom  AN      X      Y      Z        X      Y      Z        X      Y      Z
     1   6    -0.01  -0.08   0.02     0.03   0.10  -0.03     0.01   0.03  -0.02
     2   6     0.04   0.00  -0.06    -0.06  -0.02   0.08    -0.00  -0.06   0.02
     3   6    -0.05   0.04  -0.01    -0.01  -0.08  -0.01    -0.03   0.02   0.02
     4   6    -0.05  -0.04  -0.01     0.01  -0.08   0.01    -0.03  -0.02   0.02
     5   6     0.04  -0.00  -0.06     0.06  -0.02  -0.08    -0.00   0.06   0.02
     6   6    -0.03  -0.03  -0.01     0.02   0.05  -0.01     0.02   0.01  -0.02
     7   6    -0.01   0.08   0.02    -0.03   0.10   0.03     0.01  -0.03  -0.02
     8   6    -0.03   0.03  -0.01    -0.02   0.05   0.01     0.02  -0.01  -0.02
     9   6     0.03  -0.04   0.02    -0.00  -0.03   0.00     0.00  -0.01  -0.00
    10   6     0.03   0.04   0.02     0.00  -0.03  -0.00     0.00   0.01  -0.00
    11   1    -0.13  -0.13   0.14     0.28   0.21  -0.35     0.12   0.07  -0.17
    12   1     0.03   0.07  -0.08    -0.08  -0.17   0.09    -0.20  -0.50  -0.04
    13   1     0.30   0.19   0.42     0.04  -0.22  -0.28    -0.08   0.15   0.31
    14   1     0.30  -0.19   0.42    -0.04  -0.22   0.28    -0.08  -0.15   0.31
    15   1     0.03  -0.07  -0.08     0.08  -0.17  -0.09    -0.20   0.50  -0.04
    16   1     0.06  -0.05   0.05    -0.02   0.15   0.02     0.03  -0.02  -0.04
    17   1    -0.13   0.13   0.14    -0.28   0.21   0.35     0.12  -0.07  -0.17
    18   1     0.06   0.05   0.05     0.02   0.15  -0.02     0.03   0.02  -0.04
    19   1    -0.04   0.15  -0.00    -0.02  -0.02   0.03     0.07  -0.14  -0.05
    20   1     0.01  -0.26  -0.08     0.05  -0.14  -0.06     0.01   0.01   0.01
    21   1    -0.04  -0.15  -0.00     0.02  -0.02  -0.03     0.07   0.14  -0.05
    22   1     0.01   0.26  -0.08    -0.05  -0.15   0.06     0.01  -0.01   0.01
                     31                     32                     33
                      A                      A                      A
 Frequencies --   1087.0273              1099.2728              1115.2799
 Red. masses --      1.1486                 1.2062                 1.3626
 Frc consts  --      0.7997                 0.8588                 0.9986
 IR Inten    --      1.3585                 0.6652                 2.6241
  Atom  AN      X      Y      Z        X      Y      Z        X      Y      Z
     1   6    -0.01   0.00   0.02     0.03   0.02  -0.03     0.01  -0.05  -0.03
     2   6    -0.01   0.05  -0.00    -0.01  -0.01   0.02     0.03   0.01  -0.06
     3   6     0.03  -0.04  -0.02    -0.03  -0.06  -0.01     0.01   0.00  -0.00
     4   6    -0.03  -0.04   0.02    -0.03   0.06  -0.01    -0.01   0.00   0.00
     5   6     0.01   0.05   0.00    -0.01   0.01   0.02    -0.03   0.01   0.06
     6   6    -0.00  -0.00   0.01    -0.04   0.02   0.00    -0.05  -0.02   0.05
     7   6     0.01   0.00  -0.02     0.03  -0.02  -0.03    -0.01  -0.05   0.03
     8   6     0.00  -0.00  -0.01    -0.04  -0.02   0.00     0.05  -0.02  -0.05
     9   6     0.00  -0.02   0.00     0.02   0.01   0.02     0.01   0.02  -0.03
    10   6    -0.00  -0.02  -0.00     0.02  -0.01   0.02    -0.01   0.02   0.03
    11   1    -0.10  -0.05   0.18     0.24   0.11  -0.30     0.18   0.01  -0.26
    12   1     0.17   0.43   0.06    -0.05  -0.00   0.00     0.07   0.13  -0.06
    13   1    -0.07  -0.20  -0.42     0.32  -0.10  -0.01    -0.03  -0.01  -0.04
    14   1     0.07  -0.20   0.42     0.32   0.10  -0.01     0.03  -0.01   0.04
    15   1    -0.17   0.43  -0.06    -0.05   0.00   0.00    -0.07   0.13   0.06
    16   1    -0.03  -0.04  -0.04    -0.03   0.28   0.20    -0.15   0.40   0.32
    17   1     0.10  -0.05  -0.18     0.24  -0.11  -0.30    -0.18   0.01   0.26
    18   1     0.03  -0.04   0.04    -0.03  -0.28   0.20     0.15   0.40  -0.32
    19   1     0.02  -0.02  -0.03    -0.11   0.26   0.08     0.11  -0.16  -0.11
    20   1    -0.01  -0.05  -0.01    -0.00  -0.09  -0.03     0.02   0.12   0.01
    21   1    -0.02  -0.02   0.03    -0.11  -0.26   0.08    -0.11  -0.16   0.11
    22   1     0.01  -0.05   0.01    -0.00   0.09  -0.03    -0.02   0.12  -0.01
                     34                     35                     36
                      A                      A                      A
 Frequencies --   1123.7371              1142.5527              1172.0481
 Red. masses --      1.5786                 1.1638                 1.2410
 Frc consts  --      1.1745                 0.8951                 1.0044
 IR Inten    --      6.8813                 3.3009                 3.5874
  Atom  AN      X      Y      Z        X      Y      Z        X      Y      Z
     1   6     0.00   0.07   0.03    -0.01  -0.02  -0.00    -0.00   0.02   0.01
     2   6    -0.05  -0.00   0.07     0.02   0.00  -0.03    -0.00  -0.01   0.03
     3   6    -0.02  -0.04   0.01    -0.01   0.01  -0.03    -0.07  -0.02  -0.05
     4   6    -0.02   0.04   0.01     0.01   0.01   0.03    -0.07   0.02  -0.05
     5   6    -0.05   0.00   0.07    -0.02   0.00   0.03    -0.00   0.01   0.03
     6   6     0.01   0.03  -0.08     0.03  -0.02   0.05     0.02   0.00   0.01
     7   6     0.00  -0.07   0.03     0.01  -0.02   0.00    -0.00  -0.02   0.01
     8   6     0.01  -0.03  -0.08    -0.03  -0.02  -0.05     0.02  -0.00   0.01
     9   6     0.04   0.03  -0.04     0.02   0.00  -0.02     0.01   0.03   0.01
    10   6     0.04  -0.03  -0.04    -0.02   0.00   0.02     0.01  -0.03   0.01
    11   1    -0.11   0.03   0.22    -0.00  -0.00  -0.07    -0.03   0.03   0.01
    12   1    -0.08  -0.07   0.08     0.05   0.04  -0.02    -0.00   0.15   0.02
    13   1     0.19  -0.08  -0.01    -0.00   0.03   0.00     0.40  -0.03   0.05
    14   1     0.19   0.08  -0.01     0.00   0.03  -0.00     0.40   0.03   0.05
    15   1    -0.08   0.07   0.08    -0.05   0.04   0.02    -0.00  -0.15   0.02
    16   1     0.19  -0.34  -0.26    -0.10   0.08   0.04     0.01  -0.06  -0.05
    17   1    -0.11  -0.03   0.22     0.00  -0.00   0.07    -0.03  -0.03   0.01
    18   1     0.19   0.34  -0.26     0.10   0.08  -0.04     0.01   0.06  -0.05
    19   1    -0.10   0.25   0.09    -0.27   0.44   0.25     0.25  -0.30  -0.25
    20   1     0.15  -0.11  -0.13     0.19  -0.26  -0.18    -0.13   0.23   0.13
    21   1    -0.10  -0.25   0.09     0.27   0.44  -0.25     0.25   0.30  -0.25
    22   1     0.15   0.11  -0.13    -0.19  -0.26   0.18    -0.13  -0.23   0.13
                     37                     38                     39
                      A                      A                      A
 Frequencies --   1278.4257              1281.2102              1303.3967
 Red. masses --      1.7973                 1.8331                 1.5063
 Frc consts  --      1.7307                 1.7729                 1.5077
 IR Inten    --      6.1964                 2.5652                 1.2432
  Atom  AN      X      Y      Z        X      Y      Z        X      Y      Z
     1   6     0.01  -0.03  -0.03     0.01  -0.03  -0.03    -0.02  -0.03   0.03
     2   6    -0.01   0.03   0.03    -0.01   0.04   0.04    -0.02  -0.03   0.03
     3   6     0.03   0.02  -0.03     0.04   0.01  -0.04     0.06  -0.02  -0.08
     4   6     0.03  -0.02  -0.03    -0.04   0.01   0.04     0.06   0.02  -0.08
     5   6    -0.01  -0.03   0.03     0.01   0.04  -0.04    -0.02   0.03   0.03
     6   6     0.01   0.04  -0.02     0.02   0.04  -0.02    -0.00   0.08   0.01
     7   6     0.01   0.03  -0.03    -0.01  -0.03   0.03    -0.02   0.03   0.03
     8   6     0.01  -0.04  -0.02    -0.02   0.04   0.02    -0.00  -0.08   0.01
     9   6    -0.08   0.12   0.08     0.08  -0.12  -0.08    -0.02   0.02   0.01
    10   6    -0.08  -0.12   0.08    -0.08  -0.12   0.08    -0.02  -0.02   0.01
    11   1    -0.04  -0.06   0.06    -0.02  -0.06   0.05     0.17   0.07  -0.29
    12   1    -0.04  -0.05   0.03    -0.05  -0.07   0.03     0.07   0.34   0.04
    13   1     0.06   0.02  -0.04     0.04   0.02  -0.03    -0.17   0.18   0.31
    14   1     0.06  -0.02  -0.04    -0.04   0.02   0.03    -0.17  -0.18   0.31
    15   1    -0.04   0.05   0.03     0.05  -0.07  -0.03     0.07  -0.34   0.04
    16   1    -0.02   0.15   0.03    -0.02   0.15   0.02     0.07  -0.21  -0.16
    17   1    -0.04   0.06   0.06     0.02  -0.06  -0.05     0.17  -0.07  -0.29
    18   1    -0.02  -0.15   0.03     0.02   0.15  -0.02     0.07   0.21  -0.16
    19   1     0.14  -0.24  -0.12    -0.15   0.24   0.13    -0.05   0.05   0.04
    20   1     0.28  -0.43  -0.26    -0.27   0.43   0.25    -0.00   0.01   0.01
    21   1     0.14   0.24  -0.12     0.15   0.24  -0.13    -0.05  -0.05   0.04
    22   1     0.28   0.43  -0.26     0.27   0.43  -0.25    -0.00  -0.01   0.01
                     40                     41                     42
                      A                      A                      A
 Frequencies --   1304.5426              1372.4821              1409.4569
 Red. masses --      1.5088                 2.8173                 3.1225
 Frc consts  --      1.5129                 3.1267                 3.6547
 IR Inten    --      0.6164                 7.8687                 2.9383
  Atom  AN      X      Y      Z        X      Y      Z        X      Y      Z
     1   6    -0.02  -0.04   0.03    -0.04  -0.03   0.04    -0.01   0.03   0.02
     2   6    -0.02  -0.03   0.03     0.03   0.18   0.04    -0.01   0.14   0.09
     3   6     0.06  -0.02  -0.08     0.07  -0.13  -0.07     0.04  -0.16  -0.13
     4   6    -0.06  -0.02   0.08    -0.07  -0.13   0.07     0.04   0.16  -0.13
     5   6     0.02  -0.03  -0.03    -0.03   0.18  -0.04    -0.01  -0.14   0.09
     6   6    -0.00   0.08   0.02     0.04  -0.06  -0.06     0.05  -0.09  -0.08
     7   6     0.02  -0.04  -0.03     0.04  -0.03  -0.04    -0.01  -0.03   0.02
     8   6     0.00   0.08  -0.02    -0.04  -0.06   0.06     0.05   0.09  -0.08
     9   6     0.02  -0.01  -0.01     0.02   0.08  -0.02    -0.03  -0.07   0.03
    10   6    -0.02  -0.01   0.01    -0.02   0.08   0.02    -0.03   0.07   0.03
    11   1     0.17   0.06  -0.29    -0.07  -0.05   0.09    -0.14  -0.02   0.20
    12   1     0.07   0.32   0.04    -0.11  -0.37   0.02    -0.07  -0.16   0.10
    13   1    -0.22   0.18   0.29    -0.40   0.00   0.15    -0.20   0.07   0.35
    14   1     0.22   0.18  -0.29     0.40   0.00  -0.15    -0.20  -0.07   0.35
    15   1    -0.07   0.32  -0.04     0.11  -0.37  -0.02    -0.07   0.16   0.10
    16   1     0.07  -0.21  -0.17    -0.03   0.17   0.06    -0.06   0.29   0.14
    17   1    -0.17   0.06   0.29     0.07  -0.05  -0.09    -0.14   0.02   0.20
    18   1    -0.07  -0.21   0.17     0.03   0.17  -0.06    -0.06  -0.29   0.14
    19   1     0.04  -0.04  -0.04     0.07  -0.11   0.03    -0.03   0.06  -0.08
    20   1     0.02  -0.03  -0.02     0.02  -0.10  -0.11    -0.03   0.08   0.11
    21   1    -0.04  -0.04   0.04    -0.07  -0.11  -0.03    -0.03  -0.06  -0.08
    22   1    -0.02  -0.03   0.02    -0.02  -0.10   0.11    -0.03  -0.08   0.11
                     43                     44                     45
                      A                      A                      A
 Frequencies --   1432.6750              1433.7284              1465.7090
 Red. masses --      2.6212                 2.1555                 1.1406
 Frc consts  --      3.1699                 2.6105                 1.4437
 IR Inten    --      8.9384                 4.4834                 4.2280
  Atom  AN      X      Y      Z        X      Y      Z        X      Y      Z
     1   6     0.09   0.11  -0.11     0.06   0.11  -0.07    -0.01  -0.02   0.00
     2   6    -0.06  -0.16   0.05    -0.06  -0.09   0.07     0.01   0.03  -0.00
     3   6     0.04   0.04  -0.02     0.04  -0.01  -0.07     0.00  -0.01   0.01
     4   6     0.04  -0.04  -0.02    -0.04  -0.02   0.07    -0.00  -0.01  -0.01
     5   6    -0.06   0.16   0.06     0.06  -0.09  -0.07    -0.01   0.03   0.00
     6   6    -0.03  -0.06   0.02     0.01  -0.09  -0.02     0.00   0.02   0.00
     7   6     0.09  -0.11  -0.11    -0.06   0.11   0.07     0.01  -0.02  -0.00
     8   6    -0.03   0.06   0.02    -0.01  -0.08   0.02    -0.00   0.02  -0.00
     9   6     0.00  -0.00  -0.01     0.00   0.02  -0.00    -0.04  -0.04   0.03
    10   6     0.00   0.00  -0.01    -0.00   0.02   0.00     0.04  -0.04  -0.03
    11   1    -0.17  -0.01   0.31    -0.17   0.01   0.30     0.01  -0.01  -0.03
    12   1     0.02   0.33   0.07     0.01   0.24   0.10    -0.03  -0.08  -0.01
    13   1    -0.07   0.15   0.18    -0.13   0.14   0.25    -0.01  -0.03  -0.02
    14   1    -0.07  -0.15   0.18     0.13   0.14  -0.25     0.01  -0.03   0.02
    15   1     0.02  -0.33   0.07    -0.01   0.24  -0.10     0.03  -0.08   0.01
    16   1    -0.07   0.18   0.18    -0.08   0.25   0.19     0.02  -0.04  -0.03
    17   1    -0.17   0.01   0.31     0.17   0.01  -0.30    -0.01  -0.01   0.03
    18   1    -0.07  -0.18   0.18     0.08   0.25  -0.18    -0.02  -0.04   0.03
    19   1    -0.05  -0.07   0.17     0.04   0.10  -0.14     0.04   0.26  -0.41
    20   1    -0.11  -0.07  -0.02     0.15   0.07  -0.01     0.45   0.22   0.05
    21   1    -0.05   0.07   0.17    -0.04   0.10   0.14    -0.04   0.26   0.40
    22   1    -0.11   0.07  -0.02    -0.15   0.07   0.01    -0.44   0.21  -0.05
                     46                     47                     48
                      A                      A                      A
 Frequencies --   1465.8269              1532.4306              1550.1866
 Red. masses --      1.1367                 3.9317                 4.2743
 Frc consts  --      1.4390                 5.4400                 6.0518
 IR Inten    --     10.7452                 6.8249                 0.7039
  Atom  AN      X      Y      Z        X      Y      Z        X      Y      Z
     1   6     0.01   0.01  -0.01    -0.10   0.09   0.20     0.12  -0.07  -0.23
     2   6    -0.01  -0.04  -0.00    -0.01  -0.11  -0.06    -0.02   0.07   0.06
     3   6     0.00   0.02   0.01    -0.00   0.05   0.04     0.01  -0.04  -0.04
     4   6     0.00  -0.02   0.01    -0.00  -0.05   0.04    -0.01  -0.04   0.04
     5   6    -0.01   0.03  -0.00    -0.01   0.11  -0.06     0.02   0.07  -0.06
     6   6    -0.01  -0.01   0.00     0.10  -0.12  -0.18    -0.10   0.12   0.20
     7   6     0.01  -0.01  -0.01    -0.10  -0.09   0.20    -0.12  -0.07   0.23
     8   6    -0.01   0.01   0.00     0.10   0.12  -0.18     0.10   0.12  -0.20
     9   6    -0.04  -0.04   0.03    -0.02   0.01   0.02    -0.01   0.00   0.02
    10   6    -0.04   0.04   0.03    -0.02  -0.01   0.02     0.01   0.00  -0.02
    11   1    -0.00   0.00   0.02     0.15   0.24  -0.20    -0.16  -0.24   0.23
    12   1     0.01   0.06  -0.00     0.13   0.28  -0.02    -0.10  -0.23   0.05
    13   1    -0.01   0.03  -0.00    -0.02   0.02  -0.06    -0.01  -0.01   0.04
    14   1    -0.01  -0.03  -0.00    -0.02  -0.02  -0.06     0.01  -0.01  -0.04
    15   1     0.01  -0.06  -0.00     0.13  -0.28  -0.02     0.10  -0.23  -0.05
    16   1    -0.01   0.02   0.02    -0.00   0.30   0.02    -0.02  -0.29  -0.01
    17   1    -0.00  -0.00   0.02     0.15  -0.24  -0.20     0.16  -0.24  -0.23
    18   1    -0.01  -0.02   0.02    -0.00  -0.30   0.02     0.02  -0.29   0.01
    19   1     0.03   0.27  -0.39     0.04  -0.11   0.01     0.04  -0.12   0.02
    20   1     0.45   0.21   0.05     0.01  -0.20  -0.08    -0.02  -0.20  -0.07
    21   1     0.03  -0.27  -0.40     0.04   0.11   0.01    -0.04  -0.12  -0.02
    22   1     0.46  -0.22   0.05     0.01   0.20  -0.08     0.02  -0.20   0.07
                     49                     50                     51
                      A                      A                      A
 Frequencies --   2981.5249              2981.6554              3085.5995
 Red. masses --      1.0720                 1.0723                 1.0883
 Frc consts  --      5.6144                 5.6168                 6.1050
 IR Inten    --    105.6866                15.9623                16.6836
  Atom  AN      X      Y      Z        X      Y      Z        X      Y      Z
     1   6     0.00   0.00  -0.00    -0.00  -0.00   0.00    -0.00   0.00  -0.00
     2   6    -0.00  -0.00   0.00     0.00   0.00  -0.00     0.00  -0.00  -0.00
     3   6    -0.00  -0.00  -0.00     0.00   0.00   0.00    -0.00   0.00  -0.00
     4   6    -0.00   0.00  -0.00    -0.00   0.00  -0.00     0.00   0.00   0.00
     5   6    -0.00   0.00   0.00    -0.00   0.00   0.00    -0.00  -0.00   0.00
     6   6    -0.00   0.00  -0.00     0.00  -0.00   0.00    -0.00  -0.00   0.00
     7   6     0.00  -0.00  -0.00     0.00  -0.00  -0.00     0.00   0.00   0.00
     8   6    -0.00  -0.00  -0.00    -0.00  -0.00  -0.00     0.00  -0.00  -0.00
     9   6    -0.05  -0.02  -0.01    -0.05  -0.02  -0.01     0.01  -0.02   0.05
    10   6    -0.05   0.02  -0.01     0.05  -0.02   0.01    -0.01  -0.02  -0.05
    11   1    -0.00  -0.00  -0.00     0.00   0.00   0.00     0.00  -0.00   0.00
    12   1    -0.00   0.00   0.00     0.00  -0.00   0.00    -0.00   0.00   0.01
    13   1     0.00   0.02  -0.01    -0.00  -0.02   0.01    -0.00  -0.03   0.01
    14   1     0.00  -0.02  -0.01     0.00  -0.02  -0.01     0.00  -0.03  -0.01
    15   1    -0.00  -0.00   0.00    -0.00  -0.00  -0.00     0.00   0.00  -0.01
    16   1    -0.00  -0.00   0.01     0.00   0.00  -0.01     0.01   0.01  -0.02
    17   1    -0.00   0.00  -0.00    -0.00   0.00  -0.00    -0.00  -0.00  -0.00
    18   1    -0.00   0.00   0.01    -0.00   0.00   0.01    -0.01   0.01   0.02
    19   1     0.60   0.23   0.25     0.61   0.24   0.26    -0.08  -0.04  -0.02
    20   1    -0.03   0.04  -0.10    -0.03   0.04  -0.09    -0.11   0.30  -0.62
    21   1     0.61  -0.24   0.26    -0.60   0.24  -0.25     0.08  -0.04   0.02
    22   1    -0.03  -0.04  -0.10     0.03   0.03   0.09     0.11   0.30   0.62
                     52                     53                     54
                      A                      A                      A
 Frequencies --   3087.0859              3153.0467              3160.2273
 Red. masses --      1.0891                 1.0910                 1.0899
 Frc consts  --      6.1150                 6.3904                 6.4133
 IR Inten    --     39.2691                 5.3900                34.3944
  Atom  AN      X      Y      Z        X      Y      Z        X      Y      Z
     1   6    -0.00   0.00  -0.00     0.00   0.00   0.00     0.00   0.00   0.00
     2   6    -0.00  -0.00   0.00     0.00   0.00  -0.00     0.00   0.00  -0.01
     3   6    -0.00   0.00  -0.00    -0.01  -0.06   0.02    -0.01  -0.06   0.02
     4   6    -0.00  -0.00  -0.00    -0.01   0.06   0.02     0.01  -0.06  -0.02
     5   6    -0.00   0.00   0.00     0.00  -0.00  -0.00    -0.00   0.00   0.01
     6   6    -0.00  -0.00   0.00    -0.00  -0.00   0.00    -0.00  -0.00   0.00
     7   6    -0.00  -0.00  -0.00     0.00  -0.00   0.00    -0.00   0.00  -0.00
     8   6    -0.00   0.00   0.00    -0.00   0.00   0.00     0.00  -0.00  -0.00
     9   6    -0.02   0.02  -0.05     0.00   0.00  -0.00    -0.00  -0.00   0.00
    10   6    -0.02  -0.02  -0.05     0.00  -0.00  -0.00     0.00  -0.00  -0.00
    11   1     0.00   0.00   0.00    -0.00  -0.01  -0.00    -0.00  -0.01  -0.00
    12   1     0.00  -0.00  -0.00    -0.04   0.00   0.07    -0.04   0.00   0.08
    13   1     0.00  -0.00   0.00     0.07   0.64  -0.28     0.07   0.64  -0.28
    14   1     0.00   0.00   0.00     0.07  -0.64  -0.28    -0.07   0.64   0.28
    15   1     0.00   0.00  -0.00    -0.04  -0.00   0.07     0.04   0.00  -0.08
    16   1     0.01   0.01  -0.02     0.01   0.01  -0.01     0.01   0.01  -0.01
    17   1     0.00  -0.00   0.00    -0.00   0.01  -0.00     0.00  -0.01   0.00
    18   1     0.01  -0.01  -0.02     0.01  -0.01  -0.01    -0.01   0.01   0.01
    19   1     0.08   0.04   0.02    -0.02  -0.01  -0.01     0.02   0.01   0.00
    20   1     0.11  -0.30   0.62     0.00  -0.00   0.01    -0.00   0.01  -0.03
    21   1     0.08  -0.04   0.02    -0.02   0.01  -0.01    -0.02   0.01  -0.00
    22   1     0.11   0.30   0.62     0.00   0.00   0.01     0.00   0.01   0.03
                     55                     56                     57
                      A                      A                      A
 Frequencies --   3186.5368              3188.1690              3213.7273
 Red. masses --      1.0884                 1.0885                 1.0974
 Frc consts  --      6.5116                 6.5189                 6.6776
 IR Inten    --     11.3847                15.8831                17.1692
  Atom  AN      X      Y      Z        X      Y      Z        X      Y      Z
     1   6    -0.00   0.05   0.02     0.00  -0.05  -0.02    -0.00   0.02   0.01
     2   6     0.00  -0.00  -0.01    -0.00   0.00   0.01     0.01  -0.00  -0.01
     3   6     0.00   0.00  -0.00    -0.00  -0.00   0.00    -0.00   0.00   0.00
     4   6     0.00  -0.00  -0.00     0.00  -0.00  -0.00    -0.00  -0.00   0.00
     5   6     0.00   0.00  -0.01     0.00   0.00  -0.01     0.01   0.00  -0.01
     6   6    -0.01  -0.01   0.01     0.01   0.01  -0.02     0.03   0.03  -0.04
     7   6    -0.00  -0.05   0.02    -0.00  -0.05   0.02    -0.00  -0.02   0.01
     8   6    -0.01   0.01   0.01    -0.01   0.01   0.02     0.03  -0.03  -0.04
     9   6     0.00  -0.00   0.00     0.00  -0.00   0.00     0.00   0.00  -0.00
    10   6     0.00   0.00   0.00    -0.00  -0.00  -0.00     0.00  -0.00  -0.00
    11   1     0.01  -0.61  -0.18    -0.01   0.61   0.18     0.01  -0.22  -0.07
    12   1    -0.05   0.01   0.10     0.05  -0.01  -0.10    -0.08   0.01   0.16
    13   1    -0.00  -0.03   0.01     0.00   0.03  -0.01    -0.00  -0.01   0.00
    14   1    -0.00   0.03   0.01    -0.00   0.03   0.01    -0.00   0.01   0.00
    15   1    -0.05  -0.01   0.10    -0.05  -0.01   0.10    -0.08  -0.01   0.17
    16   1     0.13   0.15  -0.19    -0.14  -0.16   0.20    -0.31  -0.34   0.43
    17   1     0.01   0.61  -0.18     0.01   0.60  -0.18     0.01   0.23  -0.07
    18   1     0.13  -0.15  -0.19     0.14  -0.16  -0.20    -0.32   0.35   0.44
    19   1     0.00   0.00   0.00    -0.00  -0.00  -0.00    -0.00  -0.00  -0.00
    20   1    -0.00   0.00  -0.01    -0.00   0.01  -0.01     0.00  -0.01   0.02
    21   1     0.00  -0.00   0.00     0.00  -0.00   0.00    -0.00   0.00  -0.00
    22   1    -0.00  -0.00  -0.01     0.00   0.01   0.01     0.00   0.01   0.02
                     58                     59                     60
                      A                      A                      A
 Frequencies --   3213.8674              3231.1532              3231.7495
 Red. masses --      1.0977                 1.0979                 1.0984
[...]
 9033,0.00004570,0.00040455,-0.00153538,-0.00366552,0.00353138,0.000871
 55,0.00035645,0.00067688,-0.00290822,0.04953392,-0.00113024,0.00554162
 ,-0.00353230,-0.12603947,0.02176911,-0.28677705,-0.00679826,-0.0040282
 5,-0.00603953,0.00023788,-0.00015465,-0.00028779,-0.00076398,0.0006734
 4,-0.00021981,-0.00213848,-0.00027103,-0.00084182,0.00014625,-0.000255
 91,0.00090630,0.00126102,-0.00072946,-0.00123488,-0.00052522,-0.000395
 06,-0.00029142,-0.00075473,0.00113437,-0.00005803,0.00069618,-0.000482
 14,-0.00030855,0.13548648,-0.02413911,0.29847841,0.00482553,0.00038748
 ,0.00132400,-0.00003995,-0.00525091,0.00288745,-0.03676802,-0.01551512
 ,-0.02632914,-0.00908994,0.01270746,0.01340165,-0.00203566,-0.00469978
 ,-0.00076251,-0.00280198,0.00177115,-0.00468821,-0.00095108,0.00120864
 ,-0.00176198,-0.00064220,0.00123800,0.00158063,0.00198202,0.00061178,0
 .00075227,-0.00084118,-0.01912740,-0.00421200,0.00027375,-0.00020522,0
 .00007013,-0.00184382,0.00020345,0.00132011,0.04464398,0.00035739,-0.0
 0390264,0.00202062,-0.00288575,-0.01494190,-0.01399508,-0.02447824,-0.
 28388871,-0.10189961,-0.00080871,-0.00027488,0.00052213,-0.00015312,0.
 00028830,-0.00016747,0.00072421,-0.00029970,0.00086545,-0.00009087,0.0
 0058901,0.00005290,-0.00024052,-0.00019827,0.00047239,0.00006361,-0.00
 008771,-0.00022425,0.00157397,0.00168750,0.00180050,-0.00113507,-0.000
 51023,-0.00034094,-0.00010879,0.00074177,0.00057858,0.02784564,0.29948
 682,-0.00260843,0.00309134,-0.00343305,0.00371920,0.02111510,0.0107562
 6,-0.02567022,-0.10991862,-0.08942389,0.00476353,-0.00841578,-0.007731
 45,0.00130862,0.00204239,0.00045193,-0.00321286,-0.00144636,-0.0023167
 6,0.00011422,-0.00033997,0.00014885,0.00018005,0.00038083,-0.00056196,
 -0.00106105,-0.00019627,0.00017824,0.00471692,-0.01577360,-0.00475469,
 0.00076541,0.00065338,0.00049173,0.00115147,-0.00140891,-0.00030146,0.
 01775783,0.11036877,0.09439300,-0.00095120,-0.00120894,-0.00176208,-0.
 00203555,0.00469974,-0.00076301,-0.00909013,-0.01270619,0.01340322,-0.
 03676875,0.01551767,-0.02633314,-0.00003981,0.00525112,0.00288689,-0.0
 0064232,-0.00123800,0.00158096,0.00482536,-0.00038717,0.00132379,-0.00
 280205,-0.00177147,-0.00468791,-0.00084155,0.01912701,-0.00421407,0.00
 198202,-0.00061171,0.00075234,0.00026540,-0.00010181,-0.00024255,0.000
 17555,-0.00008074,0.00000270,0.00125613,-0.00011561,-0.00040715,0.0446
 4564,0.00009086,0.00058902,-0.00005299,0.00015321,0.00028818,0.0001674
 7,0.00080905,-0.00027428,-0.00052262,0.02448060,-0.28386642,0.10191888
 ,0.00288655,-0.01494253,0.01399765,0.00024055,-0.00019838,-0.00047242,
 -0.00035758,-0.00390317,-0.00202057,-0.00072459,-0.00029965,-0.0008657
 1,-0.00157353,0.00168921,-0.00180120,-0.00006364,-0.00008771,0.0002243
 0,-0.00007132,0.00005498,0.00004602,0.00004686,-0.00000199,-0.00005477
 ,0.00011560,0.00080833,0.00005916,-0.02784908,0.29946331,0.00011428,0.
 00033999,0.00014892,0.00130856,-0.00204252,0.00045219,0.00476380,0.008
 41531,-0.00773269,-0.02567534,0.10993794,-0.08944484,0.00371927,-0.021
 11246,0.01075682,0.00018009,-0.00038085,-0.00056200,-0.00260847,-0.003
 09132,-0.00343240,-0.00321274,0.00144596,-0.00231674,0.00471666,0.0157
 7295,-0.00475616,-0.00106115,0.00019631,0.00017824,-0.00013645,-0.0000
 0311,0.00009083,-0.00013769,0.00006168,0.00007464,-0.00040718,-0.00005
 929,-0.00018994,0.01776307,-0.11038914,0.09441521,-0.00093489,-0.00090
 000,-0.00262125,0.00173635,0.00225550,0.00086223,-0.00131852,-0.000981
 92,0.00181187,0.00285256,0.00084830,0.00043597,-0.08417453,-0.00224182
 ,-0.12670100,-0.00311197,-0.00088271,0.00403890,-0.00459198,-0.0038119
 2,-0.01098689,0.00124422,0.00322912,-0.00058350,0.00267779,-0.00003863
 ,-0.00230144,0.00025451,-0.00044047,-0.00001624,-0.00000685,-0.0000014
 9,-0.00006802,-0.00027833,0.00010640,0.00004283,0.00017556,-0.00004687
 ,-0.00013769,-0.00184382,0.00010887,0.00115148,0.08825598,0.00000137,-
 0.00012578,-0.00051027,0.00064725,-0.00012723,0.00052146,-0.00035120,-
 0.00032156,-0.00033442,-0.01235723,0.00524051,-0.01965726,-0.00036433,
 -0.05703553,-0.02377135,-0.00067462,-0.00022118,0.00084198,0.00664442,
 0.00831584,0.01951477,0.00254211,-0.00373590,0.00281488,0.00153532,-0.
 00366594,-0.00353104,0.00039032,0.00004571,-0.00040459,0.00002985,0.00
 000436,0.00000838,-0.00010640,-0.00001163,0.00001577,0.00008077,-0.000
 00199,-0.00006169,-0.00020336,0.00074187,0.00140884,0.00292209,0.04953
 854,0.00014628,0.00025603,0.00090648,-0.00076403,-0.00067356,-0.000219
 88,0.00023804,0.00015470,-0.00028790,-0.00679701,0.00402717,-0.0060376
 3,-0.12603971,-0.02179402,-0.28677462,0.00126128,0.00072949,-0.0012352
 7,-0.00113035,-0.00554278,-0.00353330,-0.00213863,0.00027118,-0.000842
 23,-0.00075485,-0.00113392,-0.00005749,-0.00052532,0.00039501,-0.00029
 140,0.00001264,-0.00001467,0.00001334,0.00004285,-0.00001577,0.0000645
 6,0.00000268,0.00005478,0.00007465,0.00132013,-0.00057866,-0.00030155,
 0.13548552,0.02416582,0.29847529,-0.00089010,-0.00696513,-0.00414738,0
 .00311119,0.00033375,-0.00488448,-0.00089095,-0.00019123,-0.00098426,0
 .00028395,0.00009443,0.00026454,-0.00013324,0.00012265,-0.00041543,-0.
 10394301,-0.07893764,-0.11176909,0.00045635,-0.00041036,0.00034516,-0.
 00006097,-0.00000769,-0.00043134,0.00018660,0.00040220,0.00015316,0.00
 210126,0.00294984,0.00401413,-0.00289837,0.00069451,0.00197512,0.00037
 784,-0.00108272,-0.00036216,0.00082924,-0.00011882,-0.00097468,-0.0000
 3584,-0.00007835,-0.00005642,0.00001405,-0.00014093,0.00018089,0.10176
 850,0.00691667,0.01029449,0.00881460,0.00056460,-0.00072090,0.00289183
 ,0.00127029,-0.00569316,0.00015013,0.00042158,-0.00009804,-0.00024225,
 0.00014250,-0.00002056,-0.00012722,-0.07824502,-0.14111728,-0.10763468
 ,-0.00009264,0.00017439,-0.00000419,-0.00015789,-0.00005360,0.00019214
 ,-0.00001416,0.00011645,-0.00003820,-0.01396609,-0.00460779,-0.0176602
 2,-0.00009540,0.00025486,-0.00112744,0.00014791,0.00083797,0.00027346,
 -0.00145841,0.00010064,-0.00095629,0.00004320,0.00004865,-0.00006094,-
 0.00009715,-0.00001697,0.00012178,0.08405290,0.13997627,-0.01023373,-0
 .01764061,-0.00832564,-0.00356072,0.00236865,-0.00197104,0.00060346,0.
 00206351,0.00028963,0.00005476,-0.00002508,-0.00021844,-0.00001517,0.0
 0008224,0.00050314,-0.10799860,-0.10363123,-0.18290322,-0.00022790,0.0
 0011075,-0.00021579,0.00007192,0.00012671,0.00025024,-0.00008026,-0.00
 023052,-0.00005585,0.00278913,0.00309587,0.00246082,0.00223419,0.00014
 749,-0.00049545,-0.00080267,-0.00071221,-0.00017942,-0.00029268,0.0000
 4256,0.00096282,-0.00001339,0.00004635,0.00006845,-0.00008760,0.000019
 72,0.00003907,0.11765883,0.11501136,0.18932832,0.00015947,-0.00006433,
 0.00022502,-0.00007121,-0.00010261,0.00014503,0.00006175,-0.00086890,-
 0.00045218,0.00243456,0.00297786,-0.00424962,0.00200624,0.01291789,0.0
 0593746,0.00039751,-0.00003754,-0.00044378,-0.04221846,-0.00459601,-0.
 00885669,0.00323861,-0.01298550,-0.00267140,0.00540423,0.00018045,-0.0
 0645654,0.00001384,0.00002566,0.00001365,-0.00013382,-0.00004921,0.000
 11425,-0.00000685,-0.00002985,0.00001264,0.00026538,0.00007131,-0.0001
 3645,0.00027374,0.00113515,0.00076530,-0.00136832,-0.00087149,0.000696
 16,-0.00009411,0.00001485,0.00001692,0.03251336,-0.00015911,-0.0001904
 1,-0.00016786,-0.00006837,0.00025006,-0.00035966,-0.00037435,-0.000133
 73,0.00038565,0.00131637,-0.00264784,0.00135282,-0.00372865,-0.0111310
 3,-0.00970923,-0.00012046,0.00027698,0.00041426,-0.00210552,-0.3158778
 0,-0.07773273,0.00174533,-0.00373626,0.00157313,0.00132050,0.00028850,
 -0.00145258,0.00005775,-0.00007198,-0.00004478,0.00004922,0.00016423,-
 0.00008221,0.00000147,0.00000436,0.00001468,0.00010179,0.00005498,0.00
 000311,0.00020524,-0.00051024,-0.00065327,-0.00003633,0.00035640,0.000
 48208,0.00012558,0.00000476,-0.00002083,0.00265295,0.33301030,0.000022
 69,-0.00007714,0.00011530,0.00009421,-0.00019904,0.00004442,0.00045568
 ,0.00062434,-0.00020330,-0.00401474,0.00273861,-0.00018228,0.00183443,
 0.01355724,0.00922356,-0.00002880,0.00007439,0.00022875,-0.00988941,-0
 .07567876,-0.07807466,0.00075181,-0.02478368,0.00183946,-0.00461753,-0
 .00161526,-0.00181759,-0.00001635,0.00000462,-0.00006619,0.00011424,0.
 00008219,-0.00006129,-0.00006800,-0.00000838,0.00001334,-0.00024256,-0
 .00004602,0.00009083,0.00007010,0.00034102,0.00049175,0.00115007,-0.00
 067692,-0.00030853,-0.00001016,-0.00002264,-0.00000874,0.01251631,0.08
 611387,0.06938264,0.00045629,0.00041034,0.00034507,-0.00013317,-0.0001
 2273,-0.00041529,0.00028400,-0.00009439,0.00026455,-0.00089072,0.00019
 124,-0.00098418,0.00311117,-0.00033438,-0.00488461,-0.00006095,0.00000
 765,-0.00043125,-0.00089048,0.00696509,-0.00414840,-0.10395172,0.07892
 955,-0.11178035,0.00210096,-0.00294922,0.00401375,0.00018664,-0.000402
 21,0.00015315,-0.00009410,-0.00012557,-0.00001014,0.00001403,0.0001409
 4,0.00018086,-0.00003584,0.00007833,-0.00005642,0.00082913,0.00011872,
 -0.00097469,0.00037774,0.00108274,-0.00036228,0.00001780,0.00001545,-0
 .00000784,-0.00289832,-0.00069440,0.00197526,0.10177770,0.00009263,0.0
 0017438,0.00000416,-0.00014246,-0.00002058,0.00012728,-0.00042152,-0.0
 0009800,0.00024222,-0.00127012,-0.00569336,-0.00014956,-0.00056493,-0.
 00072150,-0.00289206,0.00015792,-0.00005362,-0.00019212,-0.00691813,0.
 01029535,-0.00881646,0.07823761,-0.14109252,0.10762557,0.01396674,-0.0
 0460605,0.01766083,0.00001415,0.00011646,0.00003819,-0.00001485,0.0000
 0476,0.00002264,0.00009712,-0.00001697,-0.00012175,-0.00004320,0.00004
 866,0.00006094,0.00145843,0.00010077,0.00095631,-0.00014800,0.00083805
 ,-0.00027357,-0.00001545,0.00002195,0.00000467,0.00009554,0.00025495,0
 .00112742,-0.08404463,0.13994935,-0.00022788,-0.00011078,-0.00021576,-
 0.00001521,-0.00008214,0.00050306,0.00005476,0.00002507,-0.00021848,0.
 00060358,-0.00206295,0.00028981,-0.00356075,-0.00236872,-0.00197024,0.
 00007190,-0.00012668,0.00025023,-0.01023355,0.01763827,-0.00832614,-0.
 10801017,0.10362219,-0.18291861,0.00278794,-0.00309509,0.00245938,-0.0
 0008029,0.00023054,-0.00005586,0.00001692,0.00002083,-0.00000874,-0.00
 008759,-0.00001972,0.00003907,-0.00001339,-0.00004634,0.00006845,-0.00
 029280,-0.00004247,0.00096275,-0.00080270,0.00071201,-0.00017941,-0.00
 000784,-0.00000467,0.00000733,0.00223427,-0.00014749,-0.00049567,0.117
 67147,-0.11500125,0.18934510,-0.00063939,-0.00002007,-0.00055904,-0.00
 023621,0.00196760,-0.00117657,-0.00299785,-0.00160036,0.00039836,-0.01
 947293,-0.00834930,0.00574188,0.00003043,0.00206792,-0.00014340,-0.000
 63795,-0.00014403,0.00006752,0.00060457,0.00055459,0.00102465,0.003020
 11,-0.00123082,-0.00102013,-0.22493322,-0.07159072,0.07769030,-0.00031
 815,-0.00064016,0.00042449,-0.00001078,-0.00009946,-0.00000968,0.00021
 753,-0.00002904,-0.00004844,0.00037408,0.00003399,-0.00019304,0.000778
 48,0.00059422,-0.00006796,0.00015846,-0.00006188,-0.00032325,0.0000484
 9,-0.00003275,-0.00007481,-0.00020643,-0.00015527,0.00003717,-0.000301
 18,-0.00058029,-0.00008960,0.24947546,-0.00029236,0.00014943,-0.000389
 90,-0.00037963,-0.00005866,0.00028771,0.00099032,0.00018417,0.00105968
 ,0.00749148,0.00236763,-0.00192243,-0.00023614,-0.00026230,0.00110799,
 -0.00000896,-0.00037414,-0.00017934,0.00168700,-0.00262337,0.00197347,
 -0.02757744,-0.01698544,0.00669390,-0.07672227,-0.06625093,0.02908756,
 0.00042509,0.00004007,-0.00014633,0.00003939,0.00000651,-0.00000353,0.
 00011911,-0.00004939,0.00007983,-0.00017145,0.00015130,0.00019199,-0.0
 0023549,0.00017814,-0.00027018,-0.00010617,-0.00000743,-0.00000573,-0.
 00011031,0.00003766,0.00006504,0.00151752,0.00013304,-0.00112074,0.000
 91732,-0.00012557,-0.00004272,0.08099392,0.07827822,-0.00065985,-0.000
 77178,-0.00148832,0.00106862,0.00186513,-0.00029140,-0.00151893,-0.000
 65397,0.00053948,-0.01628632,-0.00759984,0.00384612,0.00101791,-0.0018
 4510,0.00103933,-0.00095516,-0.00034120,0.00148406,-0.00308830,0.00128
 609,-0.00283133,0.00203461,0.00400047,0.00037447,0.07712312,0.02609463
 ,-0.07362115,0.00028093,-0.00022023,-0.00016463,0.00004607,0.00000155,
 -0.00006009,-0.00032614,0.00007455,0.00042145,-0.00000267,0.00015580,0
 .00008226,0.00070364,0.00031455,0.00080506,0.00039131,0.00009636,-0.00
 040919,-0.00009232,0.00000410,0.00007393,0.00031648,0.00001607,-0.0002
 4862,-0.00021336,0.00040088,0.00022677,-0.08429617,-0.03220353,0.08072
 477,0.00023788,-0.00002546,0.00035561,-0.00070495,-0.00067963,-0.00010
 659,-0.00020752,-0.00065175,-0.00218594,0.00193729,-0.01209748,-0.0172
 2653,-0.00344199,0.00223846,-0.00408111,0.00034101,0.00029337,-0.00014
 928,0.00180675,-0.00006983,0.00072572,-0.00233676,-0.00259386,0.000930
 45,-0.05059176,0.02346098,0.04001831,-0.00025249,0.00025117,0.00020045
 ,0.00000818,0.00004229,0.00003736,-0.00025392,-0.00037314,0.00005025,-
 0.00021797,0.00033470,-0.00012014,-0.00013652,0.00030659,0.00016874,-0
 .00008160,-0.00114700,-0.00055284,0.00011071,0.00000220,-0.00003449,0.
 00023144,-0.00019091,-0.00016211,-0.00005820,0.00001289,0.00009025,-0.
 00486119,0.01147020,0.02451297,0.05846578,-0.00036421,-0.00020099,-0.0
 0054450,0.00001949,0.00012605,-0.00032430,-0.00000783,0.00049274,0.000
 69361,-0.00259463,0.00334385,0.00691845,0.00246485,-0.00057038,0.00082
 526,-0.00013285,-0.00029009,0.00031798,0.00067801,-0.00603754,-0.00004
 470,0.00349614,-0.00946515,-0.02899328,0.02084254,-0.09413767,-0.09977
 457,0.00015515,-0.00006429,-0.00004991,0.00002131,0.00000106,-0.000012
 12,-0.00031127,-0.00018993,0.00043447,-0.00007583,0.00004698,0.0001346
 0,-0.00004004,-0.00007634,-0.00014564,0.00007108,0.00042925,-0.0001111
 8,-0.00006230,0.00001195,0.00006509,-0.00192305,-0.00050684,-0.0004507
 5,-0.00026240,0.00057388,0.00103223,-0.00152291,0.00500088,0.00949271,
 -0.02050064,0.10140826,0.00004994,-0.00027776,-0.00040435,0.00065504,0
 .00055894,0.00098388,0.00192862,-0.00008696,-0.00077205,0.00457346,-0.
 00826125,-0.01346731,-0.00204950,-0.00035561,-0.00245089,0.00043985,-0
 .00019911,0.00062802,0.00006666,0.00157623,-0.00154005,-0.00089524,0.0
 0191847,0.00531632,0.03663865,-0.10063995,-0.25405886,0.00023110,0.000
 56431,-0.00018456,0.00005967,0.00001760,-0.00004664,-0.00010649,0.0001
 0972,0.00046761,-0.00060349,0.00044177,0.00053450,-0.00048460,0.000282
 73,-0.00032540,-0.00063119,-0.00098828,0.00001598,-0.00019552,0.000053
 17,0.00013151,0.00016743,0.00003413,0.00014355,-0.00004744,-0.00076706
 ,0.00003150,0.00281455,-0.00441977,-0.01035908,-0.04252507,0.11048254,
 0.27532582,0.00060472,-0.00055437,0.00102484,0.00003047,-0.00206798,-0
 .00014319,-0.01947299,0.00834909,0.00574090,-0.00299793,0.00160041,0.0
 0039826,-0.00023626,-0.00196772,-0.00117641,0.00301908,0.00123128,-0.0
 0101996,-0.00063940,0.00001997,-0.00055898,-0.00063789,0.00014401,0.00
 006744,-0.00031816,0.00064020,0.00042448,-0.22493801,0.07159272,0.0776
 8401,-0.00020639,0.00015526,0.00003711,0.00015846,0.00006184,-0.000323
 26,0.00077846,-0.00059420,-0.00006792,0.00037410,-0.00003400,-0.000193
 06,0.00021755,0.00002905,-0.00004844,-0.00030116,0.00058026,-0.0000896
 6,-0.00001078,0.00009946,-0.00000969,0.00004851,0.00003275,-0.00007482
 ,-0.00006201,0.00014011,-0.00004554,-0.00003032,0.00001502,-0.00015130
 ,0.24948091,-0.00168707,-0.00262361,-0.00197350,0.00023623,-0.00026223
 ,-0.00110784,-0.00749370,0.00236849,0.00192267,-0.00099051,0.00018408,
 -0.00105972,0.00037977,-0.00005893,-0.00028771,0.02757804,-0.01698551,
 -0.00669210,0.00029235,0.00014955,0.00038972,0.00000889,-0.00037413,0.
 00017950,-0.00042509,0.00004012,0.00014634,0.07672413,-0.06625106,-0.0
 2908507,-0.00151748,0.00013312,0.00112059,0.00010621,-0.00000744,0.000
 00569,0.00023558,0.00017810,0.00027023,0.00017145,0.00015128,-0.000192
 02,-0.00011915,-0.00004941,-0.00007979,-0.00091732,-0.00012563,0.00004
 273,-0.00003938,0.00000651,0.00000353,0.00011029,0.00003766,-0.0000650
 4,-0.00014012,0.00014998,-0.00014079,-0.00004877,0.00006020,-0.0000163
 0,-0.08099601,0.07827878,-0.00308814,-0.00128618,-0.00283110,0.0010176
 7,0.00184541,0.00103928,-0.01628591,0.00759940,0.00384517,-0.00151887,
 0.00065402,0.00053947,0.00106859,-0.00186517,-0.00029120,0.00203230,-0
 .00399903,0.00037541,-0.00065985,0.00077161,-0.00148838,-0.00095507,0.
 00034129,0.00148394,0.00028093,0.00022023,-0.00016465,0.07711631,-0.02
 609214,-0.07361548,0.00031663,-0.00001611,-0.00024871,0.00039134,-0.00
 009642,-0.00040918,0.00070363,-0.00031449,0.00080503,-0.00000267,-0.00
 015582,0.00008230,-0.00032614,-0.00007452,0.00042146,-0.00021326,-0.00
 040085,0.00022680,0.00004607,-0.00000156,-0.00006008,-0.00009233,-0.00
 000410,0.00007394,-0.00004554,0.00014077,-0.00010581,-0.00001091,0.000
 02643,-0.00003808,-0.08428901,0.03220049,0.08071826,0.00180680,0.00007
 014,0.00072571,-0.00344179,-0.00223894,-0.00408084,0.00193699,0.012095
 92,-0.01722728,-0.00020758,0.00065154,-0.00218597,-0.00070494,0.000679
 62,-0.00010667,-0.00233680,0.00259416,0.00092926,0.00023786,0.00002548
 ,0.00035558,0.00034100,-0.00029336,-0.00014923,-0.00025248,-0.00025116
 ,0.00020048,-0.05059117,-0.02345648,0.04001851,0.00023139,0.00019091,-
 0.00016214,-0.00008158,0.00114692,-0.00055297,-0.00013648,-0.00030657,
 0.00016881,-0.00021802,-0.00033473,-0.00012012,-0.00025397,0.00037315,
 0.00005024,-0.00005822,-0.00001291,0.00009029,0.00000819,-0.00004229,0
 .00003736,0.00011070,-0.00000221,-0.00003449,-0.00003032,0.00004877,-0
 .00001092,0.00003616,0.00003438,0.00006488,-0.00486094,-0.01146832,0.0
 2451423,0.05846522,-0.00067776,-0.00603778,0.00004520,-0.00246512,-0.0
 0057054,-0.00082561,0.00259511,0.00334445,-0.00692055,0.00000798,0.000
 49264,-0.00069376,-0.00001950,0.00012596,0.00032444,-0.00349611,-0.009
 46250,0.02899453,0.00036426,-0.00020089,0.00054445,0.00013288,-0.00029
 012,-0.00031790,-0.00015511,-0.00006433,0.00004991,-0.02083832,-0.0941
 2115,0.09976088,0.00192302,-0.00050674,0.00045092,-0.00007115,0.000429
 39,0.00011112,0.00004001,-0.00007634,0.00014564,0.00007576,0.00004694,
 -0.00013456,0.00031126,-0.00019000,-0.00043439,0.00026240,0.00057387,-
 0.00103226,-0.00002130,0.00000106,0.00001211,0.00006227,0.00001194,-0.
 00006508,-0.00001504,0.00006020,-0.00002644,-0.00003437,0.00004412,-0.
 00002756,0.00152287,0.00500007,-0.00949327,0.02049595,0.10138974,0.000
 06679,-0.00157578,-0.00153989,-0.00204940,0.00035537,-0.00245091,0.004
 57325,0.00826002,-0.01346752,0.00192857,0.00008692,-0.00077198,0.00065
 506,-0.00055889,0.00098391,-0.00089486,-0.00191721,0.00531380,0.000049
 92,0.00027775,-0.00040443,0.00043983,0.00019919,0.00062799,0.00023111,
 -0.00056432,-0.00018452,0.03663851,0.10062632,-0.25407628,0.00016723,-
 0.00003407,0.00014354,-0.00063118,0.00098825,0.00001586,-0.00048457,-0
 .00028278,-0.00032535,-0.00060348,-0.00044175,0.00053456,-0.00010651,-
 0.00010966,0.00046757,-0.00004749,0.00076701,0.00003153,0.00005967,-0.
 00001760,-0.00004664,-0.00019552,-0.00005317,0.00013153,-0.00015129,0.
 00001629,-0.00003808,0.00006488,0.00002757,0.00006857,0.00281422,0.004
 41838,-0.01035838,-0.04252472,-0.11046781,0.27534512\\0.00000518,0.000
 02104,-0.00000809,-0.00000170,0.00000655,-0.00002326,0.00010383,-0.000
 01514,-0.00006751,-0.00010276,-0.00001585,0.00006713,0.00000103,0.0000
 0624,0.00002325,0.00002361,-0.00000104,0.00000294,-0.00000594,0.000021
 62,0.00000775,-0.00002301,-0.00000040,-0.00000265,-0.00000342,-0.00000
 480,-0.00000526,0.00000312,-0.00000525,0.00000554,0.00000010,0.0000055
 4,-0.00000322,-0.00000488,0.00000216,-0.00000594,0.00001628,-0.0000113
 5,-0.00001944,-0.00001655,-0.00001124,0.00001964,0.00000510,0.00000225
 ,0.00000595,0.00000059,0.00000423,0.00000597,-0.00000018,0.00000513,0.
 00000310,-0.00000026,0.00000399,-0.00000590,-0.00000467,-0.00000387,0.
 00000027,0.00000032,-0.00000309,-0.00000695,0.00000454,-0.00000374,-0.
 00000007,-0.00000030,-0.00000298,0.00000676\\\@


 QED = W**5 (WHICH WAS WHAT WE WANTED)
 Job cpu time:       0 days  1 hours  5 minutes 32.5 seconds.
 Elapsed time:       0 days  0 hours  0 minutes 42.0 seconds.
 File lengths (MBytes):  RWF=    181 Int=      0 D2E=      0 Chk=     10 Scr=      1
 Normal termination of Gaussian 16 at Mon Jul 28 00:21:29 2025.
