 Entering Gaussian System, Link 0=g16
 Initial command:
 /home/hongchang/data/software/Gaussian/g16/l1.exe "/home/hongchang/data/software/Gaussian/g16/scratch/Gau-1387143.inp" -scrdir="/home/hongchang/data/software/Gaussian/g16/scratch/"
 Entering Link 1 = /home/hongchang/data/software/Gaussian/g16/l1.exe PID=   1387144.
  
 Copyright (c) 1988,1990,1992,1993,1995,1998,2003,2009,2016,
            Gaussian, Inc.  All Rights Reserved.
  
 This is part of the Gaussian(R) 16 program.  It is based on
 the Gaussian(R) 09 system (copyright 2009, Gaussian, Inc.),
 the Gaussian(R) 03 system (copyright 2003, Gaussian, Inc.),
 the Gaussian(R) 98 system (copyright 1998, Gaussian, Inc.),
 the Gaussian(R) 94 system (copyright 1995, Gaussian, Inc.),
 the Gaussian 92(TM) system (copyright 1992, Gaussian, Inc.),
 the Gaussian 90(TM) system (copyright 1990, Gaussian, Inc.),
 the Gaussian 88(TM) system (copyright 1988, Gaussian, Inc.),
 the Gaussian 86(TM) system (copyright 1986, Carnegie Mellon
 University), and the Gaussian 82(TM) system (copyright 1983,
 Carnegie Mellon University). Gaussian is a federally registered
 trademark of Gaussian, Inc.
  
 This software contains proprietary and confidential information,
 including trade secrets, belonging to Gaussian, Inc.
  
 This software is provided under written license and may be
 used, copied, transmitted, or stored only in accord with that
 written license.
  
 The following legend is applicable only to US Government
 contracts under FAR:
  
                    RESTRICTED RIGHTS LEGEND
  
 Use, reproduction and disclosure by the US Government is
 subject to restrictions as set forth in subparagraphs (a)
 and (c) of the Commercial Computer Software - Restricted
 Rights clause in FAR 52.227-19.
  
 Gaussian, Inc.
 340 Quinnipiac St., Bldg. 40, Wallingford CT 06492
  
  
 ---------------------------------------------------------------
 Warning -- This program may not be used in any manner that
 competes with the business of Gaussian, Inc. or will provide
 assistance to any competitor of Gaussian, Inc.  The licensee
 of this program is prohibited from giving any competitor of
 Gaussian, Inc. access to this program.  By using this program,
 the user acknowledges that Gaussian, Inc. is engaged in the
 business of creating and licensing software in the field of
 computational chemistry and represents and warrants to the
 licensee that it is not a competitor of Gaussian, Inc. and that
 it will not use this program in any manner prohibited above.
 ---------------------------------------------------------------
  

 Cite this work as:
 Gaussian 16, Revision A.03,
 M. J. Frisch, G. W. Trucks, H. B. Schlegel, G. E. Scuseria, 
 M. A. Robb, J. R. Cheeseman, G. Scalmani, V. Barone, 
 G. A. Petersson, H. Nakatsuji, X. Li, M. Caricato, A. V. Marenich, 
 J. Bloino, B. G. Janesko, R. Gomperts, B. Mennucci, H. P. Hratchian, 
 J. V. Ortiz, A. F. Izmaylov, J. L. Sonnenberg, D. Williams-Young, 
 F. Ding, F. Lipparini, F. Egidi, J. Goings, B. Peng, A. Petrone, 
 T. Henderson, D. Ranasinghe, V. G. Zakrzewski, J. Gao, N. Rega, 
 G. Zheng, W. Liang, M. Hada, M. Ehara, K. Toyota, R. Fukuda, 
 J. Hasegawa, M. Ishida, T. Nakajima, Y. Honda, O. Kitao, H. Nakai, 
 T. Vreven, K. Throssell, J. A. Montgomery, Jr., J. E. Peralta, 
 F. Ogliaro, M. J. Bearpark, J. J. Heyd, E. N. Brothers, K. N. Kudin, 
 V. N. Staroverov, T. A. Keith, R. Kobayashi, J. Normand, 
 K. Raghavachari, A. P. Rendell, J. C. Burant, S. S. Iyengar, 
 J. Tomasi, M. Cossi, J. M. Millam, M. Klene, C. Adamo, R. Cammi, 
 J. W. Ochterski, R. L. Martin, K. Morokuma, O. Farkas, 
 J. B. Foresman, and D. J. Fox, Gaussian, Inc., Wallingford CT, 2016.
 
 ******************************************
 Gaussian 16:  ES64L-G16RevA.03 25-Dec-2016
                28-Jul-2025 
 ******************************************
 %nprocshared=96
 Will use up to   96 processors via shared memory.
 %mem=600GB
 %chk=01_02_path2_3.chk
 -----------------------------------------------------------
 # freq b3lyp/6-311g(d,p) em=gd3bj scrf(solvent=Cis-Decalin)
 -----------------------------------------------------------
 1/10=4,30=1,38=1/1,3;
 2/12=2,17=6,18=5,40=1/2;
 3/5=4,6=6,7=101,11=2,25=1,30=1,70=2201,71=2,72=99,74=-5,124=41,140=1/1,2,3;
 4//1;
 5/5=2,38=5,53=99,98=1/2;
 8/6=4,10=90,11=11/1;
 11/6=1,8=1,9=11,15=111,16=1/1,2,10;
 10/6=1/2;
 6/7=2,8=2,9=2,10=2,28=1/1;
 7/8=1,10=1,25=1/1,2,3,16;
 1/10=4,30=1/3;
 99//99;
 -------------
 01_02_path2_3
 -------------
 Symbolic Z-matrix:
 Charge =  0 Multiplicity = 1
 C                    -1.35906  -1.158     0.66862 
 C                    -0.71204  -0.10828   1.35757 
 C                    -0.75652   1.06763   0.53399 
 C                     0.75649   1.06758  -0.53409 
 C                     0.71202  -0.10841  -1.35755 
 C                    -1.90831  -0.68895  -0.49724 
 C                     1.35908  -1.15805  -0.66851 
 C                     1.90835  -0.68887   0.4973 
 C                     1.87604   0.81388   0.47592 
 C                    -1.87605   0.8138   -0.476 
 H                    -1.34964  -2.19455   0.9813 
 H                    -0.25443  -0.18046   2.3323 
 H                    -0.69111   2.04557   1.00265 
 H                     0.69107   2.04547  -1.00285 
 H                     0.25441  -0.1807   -2.33227 
 H                    -2.43869  -1.27663  -1.23377 
 H                     1.34968  -2.19463  -0.98108 
 H                     2.43875  -1.27647   1.23388 
 H                     2.82254   1.19797   0.06714 
 H                     1.7218    1.28749   1.44679 
 H                    -2.82257   1.1979   -0.06727 
 H                    -1.72182   1.28733  -1.44692 
 

 GradGradGradGradGradGradGradGradGradGradGradGradGradGradGradGradGradGrad
 Berny optimization.
 Initialization pass.
 Trust Radius=3.00D-01 FncErr=1.00D-07 GrdErr=1.00D-07 EigMax=2.50D+02 EigMin=1.00D-04
 Number of steps in this run=      2 maximum allowed number of steps=      2.
 GradGradGradGradGradGradGradGradGradGradGradGradGradGradGradGradGradGrad

                          Input orientation:                          
 ---------------------------------------------------------------------
 Center     Atomic      Atomic             Coordinates (Angstroms)
 Number     Number       Type             X           Y           Z
 ---------------------------------------------------------------------
      1          6           0       -1.359055   -1.157996    0.668624
      2          6           0       -0.712039   -0.108276    1.357571
      3          6           0       -0.756516    1.067627    0.533993
      4          6           0        0.756489    1.067578   -0.534093
      5          6           0        0.712019   -0.108410   -1.357548
      6          6           0       -1.908311   -0.688951   -0.497243
      7          6           0        1.359075   -1.158048   -0.668506
      8          6           0        1.908348   -0.688873    0.497297
      9          6           0        1.876036    0.813876    0.475915
     10          6           0       -1.876046    0.813802   -0.476001
     11          1           0       -1.349638   -2.194550    0.981301
     12          1           0       -0.254431   -0.180457    2.332300
     13          1           0       -0.691110    2.045570    1.002645
     14          1           0        0.691066    2.045471   -1.002846
     15          1           0        0.254414   -0.180695   -2.332271
     16          1           0       -2.438689   -1.276630   -1.233774
     17          1           0        1.349677   -2.194633   -0.981080
     18          1           0        2.438753   -1.276467    1.233878
     19          1           0        2.822542    1.197967    0.067142
     20          1           0        1.721803    1.287488    1.446791
     21          1           0       -2.822567    1.197900   -0.067270
     22          1           0       -1.721819    1.287329   -1.446919
 ---------------------------------------------------------------------
                    Distance matrix (angstroms):
                    1          2          3          4          5
     1  C    0.000000
     2  C    1.412512   0.000000
     3  C    2.309670   1.436317   0.000000
     4  C    3.297762   2.667883   1.852024   0.000000
     5  C    3.081615   3.065911   2.667880   1.436316   0.000000
     6  C    1.371470   2.282232   2.340010   3.191851   2.818383
     7  C    3.029216   3.081643   3.297781   2.309673   1.412516
     8  C    3.305352   2.818438   3.191886   2.340014   2.282234
     9  C    3.793577   2.885449   2.645391   1.529008   2.359477
    10  C    2.337827   2.359476   1.529007   2.645377   2.885426
    11  H    1.082728   2.213741   3.345695   4.168173   3.751350
    12  H    2.223420   1.079218   2.245821   3.285690   3.814996
    13  H    3.289461   2.182994   1.086409   2.326709   3.489830
    14  H    4.154396   3.489828   2.326703   1.086409   2.182992
    15  H    3.544541   3.814998   3.285690   2.245820   1.079218
    16  H    2.190617   3.325874   3.383821   4.024180   3.362591
    17  H    3.336670   3.751379   4.168193   3.345697   2.213744
    18  H    3.841470   3.362657   4.024222   3.383826   3.325877
    19  H    4.837158   3.983057   3.611730   2.155704   2.861935
    20  H    4.009691   2.807081   2.650208   2.214519   3.291278
    21  H    2.869434   2.861922   2.155703   3.611724   3.983034
    22  H    3.253726   3.291281   2.214518   2.650199   2.807070
                    6          7          8          9         10
     6  C    0.000000
     7  C    3.305328   0.000000
     8  C    3.944109   1.371467   0.000000
     9  C    4.186503   2.337826   1.503248   0.000000
    10  C    1.503249   3.793581   4.186524   3.870951   0.000000
    11  H    2.182896   3.336664   3.621574   4.439709   3.383935
    12  H    3.316655   3.544562   2.881551   2.995622   3.391864
    13  H    3.347962   4.154416   3.806539   2.895644   2.260026
    14  H    3.806502   3.289461   3.347961   2.260025   2.895624
    15  H    2.881498   2.223423   3.316655   3.391863   2.995601
    16  H    1.081270   3.841432   4.715803   5.090197   2.293620
    17  H    3.621555   1.082728   2.182894   3.383935   4.439716
    18  H    4.715816   2.190615   1.081271   2.293620   5.090226
    19  H    5.124447   2.869446   2.140315   1.100225   4.745452
    20  H    4.567637   3.253721   2.200532   1.091190   4.106827
    21  H    2.140315   4.837159   5.124471   4.745460   1.100225
    22  H    2.200533   4.009701   4.567654   4.106825   1.091190
                   11         12         13         14         15
    11  H    0.000000
    12  H    2.661061   0.000000
    13  H    4.291006   2.629423   0.000000
    14  H    5.106769   4.119699   2.435653   0.000000
    15  H    4.196231   4.692243   4.119701   2.629420   0.000000
    16  H    2.633470   4.323131   4.369510   4.570016   3.108146
    17  H    3.337250   4.196255   5.106789   4.291005   2.661065
    18  H    3.906223   3.108216   4.570059   4.369510   4.323132
    19  H    5.454534   4.061866   3.733544   2.531072   3.775337
    20  H    4.666371   2.616198   2.567899   2.763635   4.311624
    21  H    3.844182   3.775331   2.531081   3.733537   4.061843
    22  H    4.261250   4.311626   2.763631   2.567877   2.616188
                   16         17         18         19         20
    16  H    0.000000
    17  H    3.906187   0.000000
    18  H    5.466146   2.633468   0.000000
    19  H    5.957899   3.844195   2.762497   0.000000
    20  H    5.574031   4.261244   2.670808   1.767221   0.000000
    21  H    2.762498   5.454535   5.957933   5.646709   4.790794
    22  H    2.670809   4.666385   5.574054   4.790781   4.498010
                   21         22
    21  H    0.000000
    22  H    1.767222   0.000000
 Stoichiometry    C10H12
 Framework group  C1[X(C10H12)]
 Deg. of freedom    60
 Full point group                 C1      NOp   1
 Largest Abelian subgroup         C1      NOp   1
 Largest concise Abelian subgroup C1      NOp   1
                         Standard orientation:                         
 ---------------------------------------------------------------------
 Center     Atomic      Atomic             Coordinates (Angstroms)
 Number     Number       Type             X           Y           Z
 ---------------------------------------------------------------------
      1          6           0        1.352975    1.170128    0.680815
      2          6           0        0.699769    0.120432    1.363933
      3          6           0        0.751666   -1.055497    0.540828
      4          6           0       -0.751646   -1.055478   -0.540858
      5          6           0       -0.699748    0.120483   -1.363917
      6          6           0        1.912720    0.701043   -0.480037
      7          6           0       -1.352987    1.170146   -0.680771
      8          6           0       -1.912752    0.701010    0.480047
      9          6           0       -1.880254   -0.801740    0.459005
     10          6           0        1.880259   -0.801709   -0.459038
     11          1           0        1.340742    2.206692    0.993361
     12          1           0        0.233390    0.192646    2.334494
     13          1           0        0.682033   -2.033425    1.008902
     14          1           0       -0.682002   -2.033386   -1.008971
     15          1           0       -0.233372    0.192735   -2.334476
     16          1           0        2.449720    1.288697   -1.211774
     17          1           0       -1.340767    2.206721   -0.993281
     18          1           0       -2.449776    1.288630    1.211796
     19          1           0       -2.823037   -1.185841    0.041726
     20          1           0       -1.734784   -1.275321    1.431248
     21          1           0        2.823055   -1.185797   -0.041776
     22          1           0        1.734792   -1.275267   -1.431292
 ---------------------------------------------------------------------
 Rotational constants (GHZ):           2.4049981           1.3430484           1.2767888
 Standard basis: 6-311G(d,p) (5D, 7F)
 There are   262 symmetry adapted cartesian basis functions of A   symmetry.
 There are   252 symmetry adapted basis functions of A   symmetry.
   252 basis functions,   416 primitive gaussians,   262 cartesian basis functions
    36 alpha electrons       36 beta electrons
       nuclear repulsion energy       522.9744107373 Hartrees.
 NAtoms=   22 NActive=   22 NUniq=   22 SFac= 1.00D+00 NAtFMM=   60 NAOKFM=F Big=F
 Integral buffers will be    131072 words long.
 Raffenetti 2 integral format.
 Two-electron integral symmetry is turned on.
 Nuclear repulsion after empirical dispersion term =      522.9288008315 Hartrees.
 Force inversion solution in PCM.
 ------------------------------------------------------------------------------
 Polarizable Continuum Model (PCM)
 =================================
 Model                : PCM.
 Atomic radii         : UFF (Universal Force Field).
 Polarization charges : Total charges.
 Charge compensation  : None.
 Solution method      : Matrix inversion.
 Cavity type          : Scaled VdW (van der Waals Surface) (Alpha=1.100).
 Cavity algorithm     : GePol (No added spheres)
                        Default sphere list used, NSphG=   22.
                        Lebedev-Laikov grids with approx.  5.0 points / Ang**2.
                        Smoothing algorithm: York/Karplus (Gamma=1.0000).
                        Polarization charges: spherical gaussians, with
                                              point-specific exponents (IZeta= 3).
                        Self-potential: point-specific (ISelfS= 7).
                        Self-field    : sphere-specific E.n sum rule (ISelfD= 2).
 1st derivatives      : Analytical E(r).r(x)/FMM algorithm (CHGder, D1EAlg=3).
                        Cavity 1st derivative terms included.
 2nd derivatives      : Analytical E(r).r(xy)/FMM algorithm (CHGder, D2EAlg=3).
                        Cavity 2nd derivative terms included.
 Solvent              : Cis-Decalin, Eps=   2.213900 Eps(inf)=   2.193361
 ------------------------------------------------------------------------------
 One-electron integrals computed using PRISM.
 NBasis=   252 RedAO= T EigKep=  5.21D-04  NBF=   252
 NBsUse=   252 1.00D-06 EigRej= -1.00D+00 NBFU=   252
 ExpMin= 1.03D-01 ExpMax= 4.56D+03 ExpMxC= 6.82D+02 IAcc=3 IRadAn=         5 AccDes= 0.00D+00
 Harris functional with IExCor=  402 and IRadAn=       5 diagonalized for initial guess.
 HarFok:  IExCor=  402 AccDes= 0.00D+00 IRadAn=         5 IDoV= 1 UseB2=F ITyADJ=14
 ICtDFT=  3500011 ScaDFX=  1.000000  1.000000  1.000000  1.000000
 FoFCou: FMM=F IPFlag=           0 FMFlag=      100000 FMFlg1=           0
         NFxFlg=           0 DoJE=T BraDBF=F KetDBF=T FulRan=T
         wScrn=  0.000000 ICntrl=       500 IOpCl=  0 I1Cent=   200000004 NGrid=           0
         NMat0=    1 NMatS0=      1 NMatT0=    0 NMatD0=    1 NMtDS0=    0 NMtDT0=    0
 Petite list used in FoFCou.
 Requested convergence on RMS density matrix=1.00D-08 within 128 cycles.
 Requested convergence on MAX density matrix=1.00D-06.
 Requested convergence on             energy=1.00D-06.
 No special actions if energy rises.
 Inv3:  Mode=1 IEnd=     7188912.
 Iteration    1 A*A^-1 deviation from unit magnitude is 5.66D-15 for    664.
 Iteration    1 A*A^-1 deviation from orthogonality  is 1.60D-15 for   1018    313.
 Iteration    1 A^-1*A deviation from unit magnitude is 6.22D-15 for    325.
 Iteration    1 A^-1*A deviation from orthogonality  is 1.93D-15 for   1263    653.
 Error on total polarization charges =  0.00619
 SCF Done:  E(RB3LYP) =  -388.319899557     A.U. after   12 cycles
            NFock= 12  Conv=0.50D-08     -V/T= 2.0048
 DoSCS=F DFT=T ScalE2(SS,OS)=  1.000000  1.000000
 Range of M.O.s used for correlation:     1   252
 NBasis=   252 NAE=    36 NBE=    36 NFC=     0 NFV=     0
 NROrb=    252 NOA=    36 NOB=    36 NVA=   216 NVB=   216
 Symmetrizing basis deriv contribution to polar:
 IMax=3 JMax=2 DiffMx= 0.00D+00
 G2DrvN: will do    23 centers at a time, making    1 passes.
 Calling FoFCou, ICntrl=  3107 FMM=F I1Cent=   0 AccDes= 0.00D+00.
 NEqPCM:  Using equilibrium solvation (IEInf=0, Eps=   2.2139, EpsInf=   2.1934)
 G2PCM: DoFxE=T DoFxN=T DoGrad=T DoDP/DQ/DG/TGxP=FFFF NFrqRd=   0 IEInf=0 SqF1=F DoCFld=F IF1Alg=4.
 End of G2Drv F.D. properties file   721 does not exist.
 End of G2Drv F.D. properties file   722 does not exist.
 End of G2Drv F.D. properties file   788 does not exist.
          IDoAtm=1111111111111111111111
 NEqPCM:  Using equilibrium solvation (IEInf=0, Eps=   2.2139, EpsInf=   2.1934)
          Differentiating once with respect to electric field.
                with respect to dipole field.
          Differentiating once with respect to nuclear coordinates.
 Keep R1 ints in memory in canonical form, NReq=612588626.
          There are    69 degrees of freedom in the 1st order CPHF.  IDoFFX=6 NUNeed=     3.
     66 vectors produced by pass  0 Test12= 1.13D-14 1.45D-09 XBig12= 3.56D+02 1.70D+01.
 AX will form    66 AO Fock derivatives at one time.
     66 vectors produced by pass  1 Test12= 1.13D-14 1.45D-09 XBig12= 6.54D+01 1.36D+00.
     66 vectors produced by pass  2 Test12= 1.13D-14 1.45D-09 XBig12= 5.92D-01 1.15D-01.
     66 vectors produced by pass  3 Test12= 1.13D-14 1.45D-09 XBig12= 1.23D-03 5.55D-03.
     66 vectors produced by pass  4 Test12= 1.13D-14 1.45D-09 XBig12= 1.86D-06 2.34D-04.
     48 vectors produced by pass  5 Test12= 1.13D-14 1.45D-09 XBig12= 2.07D-09 6.27D-06.
      7 vectors produced by pass  6 Test12= 1.13D-14 1.45D-09 XBig12= 2.19D-12 2.30D-07.
      3 vectors produced by pass  7 Test12= 1.13D-14 1.45D-09 XBig12= 2.28D-15 5.25D-09.
 InvSVY:  IOpt=1 It=  1 EMax= 2.49D-14
 Solved reduced A of dimension   388 with    69 vectors.
 Isotropic polarizability for W=    0.000000      135.14 Bohr**3.
 End of Minotr F.D. properties file   721 does not exist.
 End of Minotr F.D. properties file   722 does not exist.
 End of Minotr F.D. properties file   788 does not exist.

 **********************************************************************

            Population analysis using the SCF density.

 **********************************************************************

 Orbital symmetries:
       Occupied  (A) (A) (A) (A) (A) (A) (A) (A) (A) (A) (A) (A)
                 (A) (A) (A) (A) (A) (A) (A) (A) (A) (A) (A) (A)
                 (A) (A) (A) (A) (A) (A) (A) (A) (A) (A) (A) (A)
       Virtual   (A) (A) (A) (A) (A) (A) (A) (A) (A) (A) (A) (A)
                 (A) (A) (A) (A) (A) (A) (A) (A) (A) (A) (A) (A)
                 (A) (A) (A) (A) (A) (A) (A) (A) (A) (A) (A) (A)
                 (A) (A) (A) (A) (A) (A) (A) (A) (A) (A) (A) (A)
                 (A) (A) (A) (A) (A) (A) (A) (A) (A) (A) (A) (A)
                 (A) (A) (A) (A) (A) (A) (A) (A) (A) (A) (A) (A)
                 (A) (A) (A) (A) (A) (A) (A) (A) (A) (A) (A) (A)
                 (A) (A) (A) (A) (A) (A) (A) (A) (A) (A) (A) (A)
                 (A) (A) (A) (A) (A) (A) (A) (A) (A) (A) (A) (A)
                 (A) (A) (A) (A) (A) (A) (A) (A) (A) (A) (A) (A)
                 (A) (A) (A) (A) (A) (A) (A) (A) (A) (A) (A) (A)
                 (A) (A) (A) (A) (A) (A) (A) (A) (A) (A) (A) (A)
                 (A) (A) (A) (A) (A) (A) (A) (A) (A) (A) (A) (A)
                 (A) (A) (A) (A) (A) (A) (A) (A) (A) (A) (A) (A)
                 (A) (A) (A) (A) (A) (A) (A) (A) (A) (A) (A) (A)
                 (A) (A) (A) (A) (A) (A) (A) (A) (A) (A) (A) (A)
                 (A) (A) (A) (A) (A) (A) (A) (A) (A) (A) (A) (A)
                 (A) (A) (A) (A) (A) (A) (A) (A) (A) (A) (A) (A)
 The electronic state is 1-A.
 Alpha  occ. eigenvalues --  -10.18086 -10.18082 -10.16852 -10.16852 -10.16589
 Alpha  occ. eigenvalues --  -10.16589 -10.16147 -10.16144 -10.16084 -10.16084
 Alpha  occ. eigenvalues --   -0.87006  -0.83764  -0.72203  -0.70672  -0.69051
 Alpha  occ. eigenvalues --   -0.68019  -0.56327  -0.55038  -0.53168  -0.51552
 Alpha  occ. eigenvalues --   -0.51492  -0.49873  -0.45514  -0.42264  -0.39123
 Alpha  occ. eigenvalues --   -0.37952  -0.37571  -0.36982  -0.36437  -0.35725
 Alpha  occ. eigenvalues --   -0.35676  -0.33899  -0.31948  -0.27602  -0.25778
 Alpha  occ. eigenvalues --   -0.17805
 Alpha virt. eigenvalues --   -0.04484   0.02809   0.04011   0.04664   0.07423
 Alpha virt. eigenvalues --    0.07721   0.07785   0.09641   0.09760   0.10817
 Alpha virt. eigenvalues --    0.10955   0.12836   0.13280   0.14815   0.15078
 Alpha virt. eigenvalues --    0.18465   0.18661   0.19955   0.21785   0.22419
 Alpha virt. eigenvalues --    0.26131   0.27691   0.30491   0.31123   0.31800
 Alpha virt. eigenvalues --    0.32857   0.35326   0.37466   0.38016   0.38116
 Alpha virt. eigenvalues --    0.39141   0.40603   0.42011   0.42022   0.43205
 Alpha virt. eigenvalues --    0.44268   0.45442   0.45543   0.46613   0.49869
 Alpha virt. eigenvalues --    0.50413   0.52018   0.54949   0.55082   0.55851
 Alpha virt. eigenvalues --    0.56319   0.58699   0.59071   0.59572   0.59689
 Alpha virt. eigenvalues --    0.60676   0.60927   0.61954   0.63659   0.64130
 Alpha virt. eigenvalues --    0.64393   0.65759   0.66428   0.67275   0.69150
 Alpha virt. eigenvalues --    0.70160   0.70755   0.71996   0.74668   0.75433
 Alpha virt. eigenvalues --    0.77865   0.81239   0.81908   0.85799   0.86804
 Alpha virt. eigenvalues --    0.88279   0.90829   0.92535   0.97248   0.99535
 Alpha virt. eigenvalues --    1.05091   1.05360   1.07108   1.10524   1.14451
 Alpha virt. eigenvalues --    1.15759   1.20157   1.20554   1.22684   1.22974
 Alpha virt. eigenvalues --    1.26641   1.33333   1.34145   1.38577   1.42759
 Alpha virt. eigenvalues --    1.45981   1.48470   1.49747   1.50021   1.50661
 Alpha virt. eigenvalues --    1.51983   1.52903   1.54186   1.55710   1.57429
 Alpha virt. eigenvalues --    1.58307   1.59472   1.59808   1.60483   1.61509
 Alpha virt. eigenvalues --    1.64123   1.65209   1.67237   1.68080   1.71996
 Alpha virt. eigenvalues --    1.72024   1.73046   1.74476   1.76300   1.77165
 Alpha virt. eigenvalues --    1.77238   1.81483   1.82698   1.83010   1.83362
 Alpha virt. eigenvalues --    1.83475   1.86049   1.86059   1.87659   1.89208
 Alpha virt. eigenvalues --    1.92163   1.92985   1.93767   1.97210   1.98139
 Alpha virt. eigenvalues --    2.00757   2.01362   2.01921   2.07142   2.07172
 Alpha virt. eigenvalues --    2.13175   2.13533   2.16632   2.16901   2.17890
 Alpha virt. eigenvalues --    2.21686   2.21945   2.26953   2.29166   2.32898
 Alpha virt. eigenvalues --    2.35561   2.36787   2.38135   2.40794   2.42047
 Alpha virt. eigenvalues --    2.45302   2.45459   2.47975   2.49302   2.49888
 Alpha virt. eigenvalues --    2.52493   2.60323   2.60899   2.60935   2.62769
 Alpha virt. eigenvalues --    2.65592   2.67365   2.68150   2.69020   2.70746
 Alpha virt. eigenvalues --    2.71141   2.74417   2.75470   2.76305   2.78322
 Alpha virt. eigenvalues --    2.80538   2.84774   2.85778   2.89128   2.91280
 Alpha virt. eigenvalues --    2.92404   2.92773   2.96714   3.00847   3.04088
 Alpha virt. eigenvalues --    3.08718   3.09088   3.11177   3.17618   3.19393
 Alpha virt. eigenvalues --    3.30369   3.32069   3.41318   3.42908   3.43750
 Alpha virt. eigenvalues --    3.45371   3.54422   3.56297   3.63583   3.77296
 Alpha virt. eigenvalues --    3.82564   4.03818   4.04048   4.07129   4.09353
 Alpha virt. eigenvalues --    4.09388   4.14883   4.15867   4.20229   4.48575
 Alpha virt. eigenvalues --    4.50578  23.63834  23.75998  23.88728  23.88888
 Alpha virt. eigenvalues --   23.92105  24.01371  24.03817  24.08190  24.18545
 Alpha virt. eigenvalues --   24.19307
          Condensed to atoms (all electrons):
               1          2          3          4          5          6
     1  C    4.863146   0.476457  -0.076774  -0.009101   0.008244   0.540761
     2  C    0.476457   5.084931   0.453626  -0.066278  -0.064455  -0.094945
     3  C   -0.076774   0.453626   5.191898   0.184423  -0.066279  -0.085021
     4  C   -0.009101  -0.066278   0.184423   5.191897   0.453626  -0.019288
     5  C    0.008244  -0.064455  -0.066279   0.453626   5.084938   0.054618
     6  C    0.540761  -0.094945  -0.085021  -0.019288   0.054618   5.110572
     7  C   -0.017922   0.008245  -0.009100  -0.076773   0.476451  -0.012159
     8  C   -0.012158   0.054612  -0.019286  -0.085020  -0.094944  -0.003993
     9  C    0.000317  -0.013587  -0.047958   0.375171  -0.090340   0.000903
    10  C   -0.087800  -0.090339   0.375170  -0.047958  -0.013587   0.365698
    11  H    0.421768  -0.044398   0.006700  -0.000224   0.000484  -0.045485
    12  H   -0.035800   0.418750  -0.039419  -0.001114   0.000178   0.006575
    13  H    0.007557  -0.036029   0.406675  -0.025778   0.005146   0.006683
    14  H   -0.000267   0.005146  -0.025779   0.406676  -0.036029  -0.000266
    15  H   -0.000561   0.000178  -0.001113  -0.039418   0.418749   0.002357
    16  H   -0.038243   0.008504   0.005029   0.000344  -0.001705   0.416707
    17  H    0.001833   0.000484  -0.000224   0.006700  -0.044398   0.000327
    18  H    0.000165  -0.001704   0.000344   0.005029   0.008504   0.000051
    19  H   -0.000212   0.003944   0.007554  -0.032087   0.000577  -0.000274
    20  H    0.000864  -0.003779  -0.003556  -0.043045   0.008740   0.000102
    21  H   -0.001879   0.000577  -0.032087   0.007554   0.003944  -0.040327
    22  H    0.005929   0.008740  -0.043045  -0.003556  -0.003780  -0.037744
               7          8          9         10         11         12
     1  C   -0.017922  -0.012158   0.000317  -0.087800   0.421768  -0.035800
     2  C    0.008245   0.054612  -0.013587  -0.090339  -0.044398   0.418750
     3  C   -0.009100  -0.019286  -0.047958   0.375170   0.006700  -0.039419
     4  C   -0.076773  -0.085020   0.375171  -0.047958  -0.000224  -0.001114
     5  C    0.476451  -0.094944  -0.090340  -0.013587   0.000484   0.000178
     6  C   -0.012159  -0.003993   0.000903   0.365698  -0.045485   0.006575
     7  C    4.863144   0.540768  -0.087799   0.000317   0.001833  -0.000561
     8  C    0.540768   5.110564   0.365698   0.000903   0.000327   0.002358
     9  C   -0.087799   0.365698   4.897738   0.005560  -0.000073  -0.000088
    10  C    0.000317   0.000903   0.005560   4.897741   0.008384   0.006310
    11  H    0.001833   0.000327  -0.000073   0.008384   0.573187  -0.003234
    12  H   -0.000561   0.002358  -0.000088   0.006310  -0.003234   0.547725
    13  H   -0.000267  -0.000266  -0.003255  -0.028424  -0.000271  -0.003627
    14  H    0.007557   0.006683  -0.028424  -0.003255   0.000038  -0.000111
    15  H   -0.035799   0.006575   0.006310  -0.000088  -0.000048   0.000003
    16  H    0.000165   0.000051   0.000004  -0.037006  -0.004705  -0.000316
    17  H    0.421768  -0.045485   0.008384  -0.000073   0.000081  -0.000048
    18  H   -0.038243   0.416706  -0.037006   0.000004   0.000020   0.000316
    19  H   -0.001879  -0.040327   0.388862  -0.000292  -0.000002   0.000124
    20  H    0.005929  -0.037744   0.409816   0.000524  -0.000010  -0.000281
    21  H   -0.000212  -0.000274  -0.000292   0.388861  -0.000373  -0.000235
    22  H    0.000864   0.000102   0.000524   0.409816  -0.000260  -0.000306
              13         14         15         16         17         18
     1  C    0.007557  -0.000267  -0.000561  -0.038243   0.001833   0.000165
     2  C   -0.036029   0.005146   0.000178   0.008504   0.000484  -0.001704
     3  C    0.406675  -0.025779  -0.001113   0.005029  -0.000224   0.000344
     4  C   -0.025778   0.406676  -0.039418   0.000344   0.006700   0.005029
     5  C    0.005146  -0.036029   0.418749  -0.001705  -0.044398   0.008504
     6  C    0.006683  -0.000266   0.002357   0.416707   0.000327   0.000051
     7  C   -0.000267   0.007557  -0.035799   0.000165   0.421768  -0.038243
     8  C   -0.000266   0.006683   0.006575   0.000051  -0.045485   0.416706
     9  C   -0.003255  -0.028424   0.006310   0.000004   0.008384  -0.037006
    10  C   -0.028424  -0.003255  -0.000088  -0.037006  -0.000073   0.000004
    11  H   -0.000271   0.000038  -0.000048  -0.004705   0.000081   0.000020
    12  H   -0.003627  -0.000111   0.000003  -0.000316  -0.000048   0.000316
    13  H    0.551955  -0.003760  -0.000111  -0.000338   0.000038   0.000025
    14  H   -0.003760   0.551954  -0.003627   0.000025  -0.000271  -0.000338
    15  H   -0.000111  -0.003627   0.547723   0.000316  -0.003234  -0.000316
    16  H   -0.000338   0.000025   0.000316   0.558354   0.000020   0.000000
    17  H    0.000038  -0.000271  -0.003234   0.000020   0.573187  -0.004706
    18  H    0.000025  -0.000338  -0.000316   0.000000  -0.004706   0.558355
    19  H   -0.000379  -0.002540  -0.000235   0.000001  -0.000373   0.000391
    20  H    0.002572  -0.000779  -0.000306  -0.000005  -0.000260  -0.002105
    21  H   -0.002540  -0.000379   0.000124   0.000391  -0.000002   0.000001
    22  H   -0.000779   0.002572  -0.000281  -0.002105  -0.000010  -0.000005
              19         20         21         22
     1  C   -0.000212   0.000864  -0.001879   0.005929
     2  C    0.003944  -0.003779   0.000577   0.008740
     3  C    0.007554  -0.003556  -0.032087  -0.043045
     4  C   -0.032087  -0.043045   0.007554  -0.003556
     5  C    0.000577   0.008740   0.003944  -0.003780
     6  C   -0.000274   0.000102  -0.040327  -0.037744
     7  C   -0.001879   0.005929  -0.000212   0.000864
     8  C   -0.040327  -0.037744  -0.000274   0.000102
     9  C    0.388862   0.409816  -0.000292   0.000524
    10  C   -0.000292   0.000524   0.388861   0.409816
    11  H   -0.000002  -0.000010  -0.000373  -0.000260
    12  H    0.000124  -0.000281  -0.000235  -0.000306
    13  H   -0.000379   0.002572  -0.002540  -0.000779
    14  H   -0.002540  -0.000779  -0.000379   0.002572
    15  H   -0.000235  -0.000306   0.000124  -0.000281
    16  H    0.000001  -0.000005   0.000391  -0.002105
    17  H   -0.000373  -0.000260  -0.000002  -0.000010
    18  H    0.000391  -0.002105   0.000001  -0.000005
    19  H    0.581552  -0.032590  -0.000010  -0.000042
    20  H   -0.032590   0.579862  -0.000042  -0.000022
    21  H   -0.000010  -0.000042   0.581551  -0.032590
    22  H   -0.000042  -0.000022  -0.032590   0.579862
 Mulliken charges:
               1
     1  C   -0.046326
     2  C   -0.108680
     3  C   -0.181778
     4  C   -0.181778
     5  C   -0.108684
     6  C   -0.165850
     7  C   -0.046326
     8  C   -0.165848
     9  C   -0.150465
    10  C   -0.150465
    11  H    0.086262
    12  H    0.102800
    13  H    0.125173
    14  H    0.125175
    15  H    0.102802
    16  H    0.094512
    17  H    0.086262
    18  H    0.094512
    19  H    0.128237
    20  H    0.116116
    21  H    0.128237
    22  H    0.116116
 Sum of Mulliken charges =  -0.00000
 Mulliken charges with hydrogens summed into heavy atoms:
               1
     1  C    0.039935
     2  C   -0.005880
     3  C   -0.056605
     4  C   -0.056604
     5  C   -0.005883
     6  C   -0.071338
     7  C    0.039936
     8  C   -0.071336
     9  C    0.093888
    10  C    0.093888
 APT charges:
               1
     1  C   -0.016615
     2  C   -0.138012
     3  C    0.091433
     4  C    0.091423
     5  C   -0.138004
     6  C   -0.022399
     7  C   -0.016614
     8  C   -0.022406
     9  C    0.022684
    10  C    0.022682
    11  H    0.040441
    12  H    0.049795
    13  H   -0.006114
    14  H   -0.006113
    15  H    0.049793
    16  H    0.014366
    17  H    0.040441
    18  H    0.014370
    19  H   -0.037295
    20  H    0.001720
    21  H   -0.037295
    22  H    0.001719
 Sum of APT charges =   0.00000
 APT charges with hydrogens summed into heavy atoms:
               1
     1  C    0.023827
     2  C   -0.088217
     3  C    0.085320
     4  C    0.085310
     5  C   -0.088211
     6  C   -0.008033
     7  C    0.023827
     8  C   -0.008037
     9  C   -0.012892
    10  C   -0.012894
 Electronic spatial extent (au):  <R**2>=           1166.5170
 Charge=             -0.0000 electrons
 Dipole moment (field-independent basis, Debye):
    X=             -0.0000    Y=             -0.5163    Z=             -0.0000  Tot=              0.5163
 Quadrupole moment (field-independent basis, Debye-Ang):
   XX=            -62.6720   YY=            -57.2103   ZZ=            -59.8771
   XY=              0.0000   XZ=             -3.7367   YZ=              0.0000
 Traceless Quadrupole moment (field-independent basis, Debye-Ang):
   XX=             -2.7522   YY=              2.7095   ZZ=              0.0427
   XY=              0.0000   XZ=             -3.7367   YZ=              0.0000
 Octapole moment (field-independent basis, Debye-Ang**2):
  XXX=             -0.0002  YYY=              2.7671  ZZZ=             -0.0000  XYY=             -0.0000
  XXY=             -1.6975  XXZ=             -0.0000  XZZ=             -0.0000  YZZ=              0.8853
  YYZ=             -0.0001  XYZ=             -1.2120
 Hexadecapole moment (field-independent basis, Debye-Ang**3):
 XXXX=           -889.1477 YYYY=           -390.1449 ZZZZ=           -345.8573 XXXY=             -0.0000
 XXXZ=            -24.9130 YYYX=             -0.0001 YYYZ=              0.0001 ZZZX=            -17.5134
 ZZZY=             -0.0000 XXYY=           -208.1577 XXZZ=           -210.9952 YYZZ=           -122.7013
 XXYZ=              0.0003 YYXZ=             -0.6968 ZZXY=              0.0003
 N-N= 5.229288008315D+02 E-N=-1.946398356108D+03  KE= 3.864582321862D+02
  Exact polarizability: 169.477   0.000 117.449  -1.132  -0.000 118.497
 Approx polarizability: 277.787   0.001 168.578   9.868  -0.001 201.654
 D2PCM: PCM CHGder 2nd derivatives, FixD1E=F FixD2E=F DoIter=F DoCFld=F I1PDM=0
 Calling FoFJK, ICntrl=    100127 FMM=F ISym2X=0 I1Cent= 0 IOpClX= 0 NMat=1 NMatS=1 NMatT=0.
 Full mass-weighted force constant matrix:
 Low frequencies --- -319.7358    0.0001    0.0004    0.0005    9.4769   27.6733
 Low frequencies ---   29.1279   45.1811  153.2718
 ******    1 imaginary frequencies (negative Signs) ****** 
 Diagonal vibrational polarizability:
       13.1716219       2.2225277      25.2227000
 Harmonic frequencies (cm**-1), IR intensities (KM/Mole), Raman scattering
 activities (A**4/AMU), depolarization ratios for plane and unpolarized
 incident light, reduced masses (AMU), force constants (mDyne/A),
 and normal coordinates:
                      1                      2                      3
                      A                      A                      A
 Frequencies --   -319.7357                44.3783               153.2645
 Red. masses --      9.0549                 4.7947                 3.3228
 Frc consts  --      0.5454                 0.0056                 0.0460
 IR Inten    --      1.4182                 1.8533                 0.0252
  Atom  AN      X      Y      Z        X      Y      Z        X      Y      Z
     1   6    -0.03  -0.03   0.06     0.03   0.06  -0.00     0.09   0.03  -0.12
     2   6    -0.15   0.08  -0.05    -0.20   0.09  -0.11    -0.00   0.14  -0.04
     3   6    -0.43  -0.00  -0.34    -0.10   0.07  -0.08    -0.06   0.07   0.05
     4   6     0.43  -0.00   0.34    -0.10  -0.07  -0.08     0.06   0.07  -0.05
     5   6     0.15   0.08   0.05    -0.20  -0.09  -0.11     0.00   0.14   0.04
     6   6    -0.14  -0.02  -0.05     0.24   0.03   0.15     0.11  -0.12  -0.05
     7   6     0.03  -0.03  -0.06     0.03  -0.06  -0.00    -0.09   0.03   0.12
     8   6     0.14  -0.02   0.05     0.24  -0.03   0.15    -0.11  -0.12   0.05
     9   6     0.07  -0.02   0.04     0.02  -0.04   0.03    -0.01  -0.11  -0.09
    10   6    -0.07  -0.02  -0.04     0.02   0.04   0.03     0.01  -0.11   0.09
    11   1     0.13  -0.05   0.13     0.05   0.06   0.02     0.15   0.07  -0.23
    12   1     0.02  -0.03   0.03    -0.17   0.07  -0.09    -0.02   0.25  -0.06
    13   1    -0.01   0.08  -0.06    -0.10   0.09  -0.05    -0.14   0.11   0.14
    14   1     0.01   0.08   0.06    -0.10  -0.09  -0.05     0.14   0.11  -0.14
    15   1    -0.02  -0.03  -0.03    -0.17  -0.07  -0.09     0.02   0.25   0.06
    16   1    -0.11   0.00  -0.02     0.39   0.00   0.23     0.19  -0.23  -0.08
    17   1    -0.13  -0.05  -0.13     0.05  -0.06   0.02    -0.15   0.07   0.23
    18   1     0.11   0.00   0.02     0.39  -0.00   0.23    -0.19  -0.23   0.08
    19   1     0.16  -0.02  -0.17    -0.06   0.14   0.06     0.04  -0.13  -0.17
    20   1    -0.11  -0.02   0.07     0.04  -0.14  -0.02    -0.03  -0.19  -0.12
    21   1    -0.16  -0.02   0.17    -0.06  -0.14   0.06    -0.04  -0.13   0.17
    22   1     0.11  -0.02  -0.07     0.04   0.14  -0.02     0.03  -0.19   0.12
                      4                      5                      6
                      A                      A                      A
 Frequencies --    186.5629               274.9527               348.4518
 Red. masses --      3.8472                 3.1474                 3.5632
 Frc consts  --      0.0789                 0.1402                 0.2549
 IR Inten    --      0.2765                 0.0181                 0.0218
  Atom  AN      X      Y      Z        X      Y      Z        X      Y      Z
     1   6     0.20  -0.03   0.12     0.16   0.06   0.06     0.11  -0.01   0.11
     2   6     0.09  -0.02   0.01     0.06   0.09   0.04     0.06   0.03   0.13
     3   6    -0.02   0.02  -0.09    -0.06   0.09   0.03    -0.04   0.04   0.13
     4   6     0.02   0.02   0.09    -0.06  -0.09   0.03     0.04   0.04  -0.13
     5   6    -0.09  -0.02  -0.01     0.06  -0.09   0.04    -0.06   0.03  -0.13
     6   6     0.20   0.02   0.09    -0.01   0.06  -0.02    -0.15  -0.03  -0.01
     7   6    -0.20  -0.03  -0.12     0.16  -0.06   0.06    -0.11  -0.01  -0.11
     8   6    -0.20   0.02  -0.09    -0.01  -0.06  -0.02     0.15  -0.03   0.01
     9   6    -0.02   0.02   0.07    -0.15  -0.06  -0.10     0.16  -0.03  -0.03
    10   6     0.02   0.02  -0.07    -0.15   0.06  -0.10    -0.16  -0.03   0.03
    11   1     0.33  -0.06   0.23     0.34   0.04   0.14     0.28  -0.02   0.15
    12   1     0.06  -0.06   0.00     0.16   0.08   0.09     0.20   0.03   0.20
    13   1     0.02   0.01  -0.11     0.00   0.10   0.07    -0.14   0.04   0.11
    14   1    -0.02   0.01   0.11     0.00  -0.10   0.07     0.14   0.04  -0.11
    15   1    -0.06  -0.06  -0.00     0.16  -0.08   0.09    -0.20   0.03  -0.20
    16   1     0.29   0.03   0.17    -0.01   0.04  -0.04    -0.22  -0.06  -0.08
    17   1    -0.33  -0.06  -0.23     0.34  -0.04   0.14    -0.28  -0.02  -0.15
    18   1    -0.29   0.03  -0.17    -0.01  -0.04  -0.04     0.22  -0.06   0.08
    19   1     0.04  -0.14   0.10    -0.12   0.04  -0.25     0.10  -0.00   0.08
    20   1     0.03   0.15   0.12    -0.31  -0.13  -0.10     0.29  -0.06  -0.07
    21   1    -0.04  -0.14  -0.10    -0.12  -0.04  -0.25    -0.10  -0.00  -0.08
    22   1    -0.03   0.15  -0.12    -0.31   0.13  -0.10    -0.29  -0.06   0.07
                      7                      8                      9
                      A                      A                      A
 Frequencies --    421.0719               442.0798               565.2498
 Red. masses --      1.9665                 1.9224                 2.9755
 Frc consts  --      0.2054                 0.2214                 0.5601
 IR Inten    --      0.1507                 0.9083                 1.7632
  Atom  AN      X      Y      Z        X      Y      Z        X      Y      Z
     1   6    -0.06   0.00  -0.02     0.09  -0.01   0.05    -0.13   0.05  -0.06
     2   6    -0.10   0.02  -0.03    -0.00   0.01  -0.03     0.17  -0.04   0.11
     3   6    -0.00   0.01   0.03    -0.08   0.02  -0.08    -0.09   0.03  -0.04
     4   6     0.00   0.01  -0.03    -0.08  -0.02  -0.08     0.09   0.03   0.04
     5   6     0.10   0.02   0.03    -0.00  -0.01  -0.03    -0.17  -0.04  -0.11
     6   6     0.05  -0.02   0.05    -0.07   0.02  -0.06     0.07  -0.01   0.07
     7   6     0.06   0.00   0.02     0.09   0.01   0.05     0.13   0.05   0.06
     8   6    -0.05  -0.02  -0.05    -0.07  -0.02  -0.06    -0.07  -0.01  -0.07
     9   6     0.12  -0.02   0.08     0.04  -0.02   0.07     0.03  -0.02  -0.02
    10   6    -0.12  -0.02  -0.08     0.04   0.02   0.07    -0.03  -0.02   0.02
    11   1    -0.08   0.02  -0.05     0.23  -0.04   0.15    -0.34   0.08  -0.19
    12   1    -0.21   0.07  -0.08    -0.05   0.01  -0.05     0.36  -0.08   0.21
    13   1    -0.05   0.01   0.01    -0.11   0.03  -0.07    -0.07   0.01  -0.06
    14   1     0.05   0.01  -0.01    -0.11  -0.03  -0.07     0.07   0.01   0.06
    15   1     0.21   0.07   0.08    -0.05  -0.01  -0.05    -0.36  -0.08  -0.21
    16   1     0.11  -0.03   0.09    -0.06   0.01  -0.06    -0.02  -0.02   0.00
    17   1     0.08   0.02   0.05     0.23   0.04   0.15     0.34   0.08   0.19
    18   1    -0.11  -0.03  -0.09    -0.06  -0.01  -0.06     0.02  -0.02  -0.00
    19   1     0.09  -0.22   0.35    -0.01  -0.22   0.39     0.10  -0.19  -0.02
    20   1     0.38   0.15   0.12     0.33   0.16   0.12     0.07   0.10   0.03
    21   1    -0.09  -0.22  -0.35    -0.01   0.22   0.39    -0.10  -0.19   0.02
    22   1    -0.38   0.15  -0.12     0.33  -0.16   0.12    -0.07   0.10  -0.03
                     10                     11                     12
                      A                      A                      A
 Frequencies --    603.5567               706.2623               709.7437
 Red. masses --      2.2363                 1.2467                 1.2111
 Frc consts  --      0.4800                 0.3664                 0.3594
 IR Inten    --      0.7351                 1.9505                63.1069
  Atom  AN      X      Y      Z        X      Y      Z        X      Y      Z
     1   6    -0.07   0.05  -0.06    -0.04  -0.01  -0.04    -0.04  -0.02  -0.03
     2   6     0.13  -0.03   0.04    -0.00  -0.02  -0.01    -0.01  -0.01   0.00
     3   6    -0.11   0.02  -0.06    -0.00  -0.01   0.02     0.02  -0.01   0.03
     4   6    -0.11  -0.02  -0.06     0.00  -0.01  -0.02     0.02   0.01   0.03
     5   6     0.13   0.03   0.04     0.00  -0.02   0.01    -0.01   0.01   0.00
     6   6     0.06   0.02   0.03    -0.01   0.03  -0.04    -0.02   0.02  -0.05
     7   6    -0.07  -0.05  -0.06     0.04  -0.01   0.04    -0.04   0.02  -0.03
     8   6     0.06  -0.02   0.03     0.01   0.03   0.04    -0.02  -0.02  -0.05
     9   6    -0.03  -0.01   0.04     0.06   0.03  -0.01    -0.03  -0.02  -0.00
    10   6    -0.03   0.01   0.04    -0.06   0.03   0.01    -0.03   0.02  -0.00
    11   1    -0.16   0.06  -0.10     0.17  -0.06   0.13     0.20  -0.07   0.13
    12   1     0.50  -0.12   0.23     0.21  -0.05   0.09     0.13  -0.01   0.07
    13   1    -0.09   0.01  -0.08     0.01  -0.03  -0.01     0.05  -0.03  -0.00
    14   1    -0.09  -0.01  -0.08    -0.01  -0.03   0.01     0.05   0.03  -0.00
    15   1     0.50   0.12   0.23    -0.21  -0.05  -0.09     0.13   0.01   0.07
    16   1     0.02  -0.00  -0.02     0.51  -0.05   0.29     0.53  -0.04   0.31
    17   1    -0.16  -0.06  -0.10    -0.17  -0.06  -0.13     0.20   0.07   0.13
    18   1     0.02   0.00  -0.02    -0.51  -0.05  -0.29     0.53   0.04   0.31
    19   1    -0.13   0.05   0.19     0.04   0.14  -0.09     0.01  -0.14   0.03
    20   1     0.11  -0.03   0.00    -0.02  -0.08  -0.05     0.01   0.09   0.05
    21   1    -0.13  -0.05   0.19    -0.04   0.14   0.09     0.01   0.14   0.03
    22   1     0.11   0.03   0.00     0.02  -0.08   0.05     0.01  -0.09   0.05
                     13                     14                     15
                      A                      A                      A
 Frequencies --    733.0927               748.9222               796.8957
 Red. masses --      1.3879                 1.4531                 3.2785
 Frc consts  --      0.4395                 0.4802                 1.2267
 IR Inten    --     70.3939                 0.0314                 0.0320
  Atom  AN      X      Y      Z        X      Y      Z        X      Y      Z
     1   6     0.01  -0.01   0.00    -0.01   0.03   0.02     0.05   0.06  -0.02
     2   6    -0.11   0.02  -0.03    -0.08   0.05  -0.03    -0.00  -0.04  -0.16
     3   6     0.03   0.01   0.01     0.03  -0.01  -0.00    -0.04  -0.14   0.03
     4   6     0.03  -0.01   0.01    -0.03  -0.01   0.00     0.04  -0.14  -0.03
     5   6    -0.11  -0.02  -0.03     0.08   0.05   0.03     0.00  -0.04   0.16
     6   6    -0.01  -0.02   0.01    -0.00  -0.03   0.04     0.09   0.07   0.02
     7   6     0.01   0.01   0.00     0.01   0.03  -0.02    -0.05   0.06   0.02
     8   6    -0.01   0.02   0.01     0.00  -0.03  -0.04    -0.09   0.07  -0.02
     9   6     0.03   0.02  -0.01    -0.06  -0.04   0.02     0.14   0.06  -0.10
    10   6     0.03  -0.02  -0.01     0.06  -0.04  -0.02    -0.14   0.06   0.10
    11   1     0.15  -0.02   0.04     0.09   0.03   0.02    -0.10   0.02   0.11
    12   1     0.51  -0.23   0.29     0.52  -0.19   0.27     0.23  -0.08  -0.05
    13   1     0.07   0.04   0.08     0.14   0.05   0.14     0.11  -0.10   0.15
    14   1     0.07  -0.04   0.08    -0.14   0.05  -0.14    -0.11  -0.10  -0.15
    15   1     0.51   0.23   0.29    -0.52  -0.19  -0.27    -0.23  -0.08   0.05
    16   1    -0.19   0.02  -0.09    -0.08  -0.00   0.00    -0.27  -0.06  -0.35
    17   1     0.15   0.02   0.04    -0.09   0.03  -0.02     0.10   0.02  -0.11
    18   1    -0.19  -0.02  -0.09     0.08  -0.00  -0.00     0.27  -0.06   0.35
    19   1     0.05  -0.01  -0.02    -0.08  -0.09   0.12     0.18   0.02  -0.15
    20   1     0.03   0.04  -0.01     0.02   0.06   0.06     0.04   0.12  -0.06
    21   1     0.05   0.01  -0.02     0.08  -0.09  -0.12    -0.18   0.02   0.15
    22   1     0.03  -0.04  -0.01    -0.02   0.06  -0.06    -0.04   0.12   0.06
                     16                     17                     18
                      A                      A                      A
 Frequencies --    816.5410               831.3625               834.0216
 Red. masses --      4.1461                 3.6722                 5.0892
 Frc consts  --      1.6287                 1.4954                 2.0857
 IR Inten    --      8.8473                 2.5203                36.0734
  Atom  AN      X      Y      Z        X      Y      Z        X      Y      Z
     1   6    -0.07   0.14   0.08    -0.01   0.20   0.06    -0.04  -0.18  -0.03
     2   6     0.07   0.08   0.01     0.14   0.04  -0.08    -0.06   0.04   0.26
     3   6     0.03   0.09  -0.12     0.03  -0.10  -0.06    -0.06   0.19  -0.03
     4   6     0.03  -0.09  -0.12    -0.03  -0.10   0.06    -0.06  -0.19  -0.03
     5   6     0.07  -0.08   0.01    -0.14   0.04   0.08    -0.06  -0.04   0.26
     6   6    -0.15  -0.11   0.10    -0.13  -0.03   0.08     0.04  -0.05  -0.07
     7   6    -0.07  -0.14   0.08     0.01   0.20  -0.06    -0.04   0.18  -0.03
     8   6    -0.15   0.11   0.10     0.13  -0.03  -0.08     0.04   0.05  -0.07
     9   6     0.08   0.15  -0.07    -0.01  -0.11  -0.01     0.12  -0.04  -0.12
    10   6     0.08  -0.15  -0.07     0.01  -0.11   0.01     0.12   0.04  -0.12
    11   1     0.19   0.16   0.02     0.04   0.19   0.10     0.04  -0.11  -0.27
    12   1    -0.06  -0.12  -0.04    -0.24   0.04  -0.26    -0.17   0.19   0.20
    13   1    -0.10   0.18   0.03     0.07   0.00   0.16    -0.01   0.11  -0.18
    14   1    -0.10  -0.18   0.03    -0.07   0.00  -0.16    -0.01  -0.11  -0.18
    15   1    -0.06   0.12  -0.04     0.24   0.04   0.26    -0.17  -0.19   0.20
    16   1     0.21  -0.14   0.33     0.25  -0.19   0.22    -0.02   0.21   0.10
    17   1     0.19  -0.16   0.02    -0.04   0.19  -0.10     0.04   0.11  -0.27
    18   1     0.21   0.14   0.33    -0.25  -0.19  -0.22    -0.02  -0.21   0.10
    19   1     0.08   0.15  -0.09    -0.08  -0.05   0.11     0.03   0.02   0.02
    20   1     0.08   0.03  -0.13    -0.01   0.03   0.06     0.12   0.07  -0.07
    21   1     0.08  -0.15  -0.09     0.08  -0.05  -0.11     0.03  -0.02   0.02
    22   1     0.08  -0.03  -0.13     0.01   0.03  -0.06     0.12  -0.07  -0.07
                     19                     20                     21
                      A                      A                      A
 Frequencies --    892.1597               923.8258               934.3931
 Red. masses --      2.1220                 1.9711                 1.7534
 Frc consts  --      0.9951                 0.9912                 0.9020
 IR Inten    --     12.3460                18.2729                 0.9611
  Atom  AN      X      Y      Z        X      Y      Z        X      Y      Z
     1   6    -0.01   0.03   0.02    -0.01   0.00  -0.01     0.01   0.00   0.01
     2   6    -0.02  -0.03  -0.05     0.01  -0.00  -0.01     0.00  -0.05  -0.07
     3   6     0.10   0.13  -0.06    -0.09  -0.04   0.05    -0.03   0.05   0.02
     4   6    -0.10   0.13   0.06    -0.09   0.04   0.05     0.03   0.05  -0.02
     5   6     0.02  -0.03   0.05     0.01   0.00  -0.01    -0.00  -0.05   0.07
     6   6    -0.00  -0.05   0.05    -0.01   0.10  -0.04    -0.00   0.10  -0.04
     7   6     0.01   0.03  -0.02    -0.01  -0.00  -0.01    -0.01   0.00  -0.01
     8   6     0.00  -0.05  -0.05    -0.01  -0.10  -0.04     0.00   0.10   0.04
     9   6     0.10  -0.03   0.02     0.12   0.06   0.01    -0.05  -0.09  -0.03
    10   6    -0.10  -0.03  -0.02     0.12  -0.06   0.01     0.05  -0.09   0.03
    11   1     0.02   0.04  -0.02     0.00  -0.05   0.17    -0.14  -0.05   0.17
    12   1    -0.01  -0.36  -0.02     0.09   0.12   0.02     0.07  -0.16  -0.04
    13   1    -0.08   0.08  -0.22    -0.40   0.02   0.12    -0.49   0.08  -0.00
    14   1     0.08   0.08   0.22    -0.40  -0.02   0.12     0.49   0.08   0.00
    15   1     0.01  -0.36   0.02     0.09  -0.12   0.02    -0.07  -0.16   0.04
    16   1    -0.11  -0.09  -0.06     0.03   0.22   0.08     0.02   0.19   0.04
    17   1    -0.02   0.04   0.02     0.00   0.05   0.17     0.14  -0.05  -0.17
    18   1     0.11  -0.09   0.06     0.03  -0.22   0.08    -0.02   0.20  -0.04
    19   1     0.21   0.04  -0.33     0.20   0.16  -0.27    -0.06  -0.17   0.11
    20   1    -0.14  -0.24  -0.05    -0.15  -0.06  -0.02     0.18  -0.12  -0.07
    21   1    -0.21   0.04   0.33     0.20  -0.16  -0.27     0.06  -0.17  -0.11
    22   1     0.14  -0.24   0.05    -0.15   0.06  -0.02    -0.18  -0.12   0.07
                     22                     23                     24
                      A                      A                      A
 Frequencies --    950.0617               954.1793               966.0313
 Red. masses --      1.3761                 1.3826                 1.6169
 Frc consts  --      0.7318                 0.7417                 0.8890
 IR Inten    --      1.7612                 9.1385                 9.6724
  Atom  AN      X      Y      Z        X      Y      Z        X      Y      Z
     1   6     0.10  -0.01   0.04    -0.10   0.01  -0.04     0.01  -0.01   0.05
     2   6    -0.03  -0.00  -0.01     0.03  -0.00   0.00     0.00   0.01  -0.02
     3   6     0.01   0.00  -0.02     0.00  -0.00   0.01     0.01   0.01   0.03
     4   6    -0.01   0.00   0.02     0.00   0.00   0.01     0.01  -0.01   0.03
     5   6     0.03  -0.00   0.01     0.03   0.00   0.00     0.00  -0.01  -0.02
     6   6    -0.04  -0.01  -0.02     0.06   0.01   0.02     0.03   0.07  -0.01
     7   6    -0.10  -0.01  -0.04    -0.10  -0.01  -0.04     0.01   0.01   0.05
     8   6     0.04  -0.01   0.02     0.06  -0.01   0.02     0.03  -0.07  -0.01
     9   6     0.01   0.03  -0.03    -0.01   0.02  -0.03    -0.04   0.09  -0.09
    10   6    -0.01   0.03   0.03    -0.01  -0.02  -0.03    -0.04  -0.09  -0.09
    11   1    -0.49   0.10  -0.34     0.46  -0.10   0.35    -0.31   0.00  -0.00
    12   1     0.09  -0.08   0.05    -0.12   0.08  -0.07     0.01  -0.04  -0.02
    13   1     0.01  -0.03  -0.09     0.06   0.02   0.07     0.08   0.08   0.18
    14   1    -0.01  -0.03   0.09     0.06  -0.02   0.07     0.08  -0.08   0.18
    15   1    -0.09  -0.08  -0.05    -0.12  -0.08  -0.07     0.01   0.04  -0.02
    16   1     0.23  -0.11   0.10    -0.24   0.08  -0.13    -0.00   0.28   0.12
    17   1     0.49   0.10   0.34     0.46   0.10   0.35    -0.31  -0.00  -0.00
    18   1    -0.23  -0.11  -0.10    -0.24  -0.08  -0.13    -0.00  -0.28   0.12
    19   1    -0.02   0.01   0.04    -0.06   0.02   0.09    -0.13  -0.01   0.23
    20   1     0.06   0.08  -0.02     0.07   0.08  -0.01     0.15   0.38   0.03
    21   1     0.02   0.01  -0.04    -0.06  -0.02   0.09    -0.13   0.01   0.23
    22   1    -0.06   0.08   0.02     0.07  -0.08  -0.01     0.15  -0.38   0.03
                     25                     26                     27
                      A                      A                      A
 Frequencies --    980.0513               982.1216              1010.2555
 Red. masses --      1.7527                 1.9247                 1.3820
 Frc consts  --      0.9919                 1.0938                 0.8310
 IR Inten    --      0.0007                36.8056                 0.0094
  Atom  AN      X      Y      Z        X      Y      Z        X      Y      Z
     1   6     0.02   0.00   0.04     0.02   0.02  -0.01     0.01   0.02  -0.02
     2   6    -0.00   0.04   0.01    -0.00   0.03   0.00    -0.00  -0.02  -0.03
     3   6    -0.02  -0.05   0.05    -0.06  -0.11   0.07    -0.04  -0.01   0.05
     4   6     0.02  -0.05  -0.05    -0.06   0.11   0.07     0.04  -0.01  -0.05
     5   6     0.00   0.04  -0.01    -0.00  -0.03   0.00     0.00  -0.02   0.03
     6   6     0.03   0.05   0.01    -0.01  -0.05   0.06    -0.01  -0.05   0.04
     7   6    -0.02   0.00  -0.04     0.02  -0.02  -0.01    -0.01   0.02   0.02
     8   6    -0.03   0.05  -0.01    -0.01   0.05   0.06     0.01  -0.05  -0.04
     9   6     0.04  -0.07   0.12     0.01  -0.04  -0.11    -0.01   0.04   0.06
    10   6    -0.04  -0.07  -0.12     0.01   0.04  -0.11     0.01   0.04  -0.06
    11   1    -0.27   0.04  -0.10     0.04   0.07  -0.16     0.08   0.04  -0.10
    12   1     0.04   0.13   0.03     0.06   0.22   0.02     0.04  -0.07  -0.00
    13   1     0.06   0.02   0.21    -0.13  -0.09   0.10    -0.49   0.00   0.01
    14   1    -0.06   0.02  -0.21    -0.13   0.09   0.10     0.49   0.00  -0.01
    15   1    -0.04   0.13  -0.03     0.06  -0.22   0.02    -0.04  -0.07   0.00
    16   1    -0.02   0.26   0.13    -0.02  -0.05   0.05    -0.02  -0.13  -0.02
    17   1     0.27   0.04   0.10     0.04  -0.07  -0.16    -0.08   0.04   0.10
    18   1     0.02   0.26  -0.13    -0.02   0.05   0.05     0.02  -0.13   0.02
    19   1     0.09   0.13  -0.20     0.07  -0.32   0.04    -0.08   0.24   0.03
    20   1    -0.27  -0.30   0.05     0.40  -0.13  -0.22    -0.25   0.20   0.17
    21   1    -0.09   0.13   0.20     0.07   0.32   0.04     0.08   0.24  -0.03
    22   1     0.27  -0.30  -0.05     0.40   0.13  -0.22     0.25   0.20  -0.17
                     28                     29                     30
                      A                      A                      A
 Frequencies --   1042.1497              1082.9075              1083.8552
 Red. masses --      1.5873                 1.6280                 1.1915
 Frc consts  --      1.0157                 1.1248                 0.8247
 IR Inten    --     23.9525                 0.5623                 5.1944
  Atom  AN      X      Y      Z        X      Y      Z        X      Y      Z
     1   6    -0.02  -0.08   0.01    -0.03  -0.09   0.02    -0.01  -0.03   0.02
     2   6     0.05  -0.01  -0.08     0.06   0.01  -0.07     0.00   0.06  -0.02
     3   6    -0.04   0.06   0.01     0.00   0.08   0.01     0.02  -0.03  -0.03
     4   6    -0.04  -0.06   0.01    -0.00   0.08  -0.01     0.02   0.03  -0.03
     5   6     0.05   0.01  -0.08    -0.06   0.01   0.07     0.00  -0.06  -0.02
     6   6    -0.02  -0.05   0.00    -0.02  -0.05   0.01    -0.02  -0.01   0.01
     7   6    -0.02   0.08   0.01     0.03  -0.09  -0.02    -0.01   0.03   0.02
     8   6    -0.02   0.05   0.00     0.02  -0.05  -0.01    -0.02   0.01   0.01
     9   6     0.02  -0.05   0.00    -0.00   0.03   0.00     0.00   0.01   0.01
    10   6     0.02   0.05   0.00     0.00   0.03  -0.00     0.00  -0.01   0.01
    11   1    -0.16  -0.14   0.16    -0.26  -0.18   0.28    -0.14  -0.08   0.18
    12   1     0.04   0.00  -0.09     0.04   0.11  -0.10     0.20   0.49   0.05
    13   1     0.18   0.25   0.46     0.10   0.26   0.40     0.16  -0.13  -0.23
    14   1     0.18  -0.25   0.46    -0.10   0.26  -0.40     0.16   0.13  -0.23
    15   1     0.04  -0.00  -0.09    -0.05   0.11   0.10     0.20  -0.49   0.05
    16   1     0.04  -0.08   0.02     0.02  -0.11   0.00    -0.01   0.02   0.04
    17   1    -0.16   0.14   0.16     0.26  -0.18  -0.28    -0.14   0.08   0.18
    18   1     0.04   0.08   0.02    -0.02  -0.11  -0.00    -0.01  -0.02   0.04
    19   1    -0.03   0.06   0.01     0.03   0.00  -0.03    -0.10   0.19   0.06
    20   1     0.06  -0.25  -0.09    -0.05   0.13   0.05    -0.00  -0.05  -0.02
    21   1    -0.03  -0.06   0.01    -0.03   0.00   0.03    -0.10  -0.19   0.06
    22   1     0.06   0.25  -0.09     0.05   0.13  -0.05    -0.00   0.05  -0.02
                     31                     32                     33
                      A                      A                      A
 Frequencies --   1092.3749              1107.5004              1115.2692
 Red. masses --      1.1078                 1.1569                 1.3868
 Frc consts  --      0.7788                 0.8361                 1.0163
 IR Inten    --      2.4888                 2.5641                 2.3628
  Atom  AN      X      Y      Z        X      Y      Z        X      Y      Z
     1   6    -0.01  -0.00   0.02     0.02  -0.02  -0.03     0.01  -0.06  -0.03
     2   6    -0.01   0.04  -0.01     0.01  -0.01  -0.02     0.03   0.01  -0.07
     3   6     0.03  -0.02  -0.01    -0.02  -0.03  -0.00     0.02   0.00  -0.01
     4   6    -0.03  -0.02   0.01    -0.02   0.03  -0.00    -0.02   0.00   0.01
     5   6     0.01   0.04   0.01     0.01   0.01  -0.02    -0.03   0.01   0.07
     6   6    -0.00  -0.01   0.01    -0.04   0.01   0.02    -0.05  -0.02   0.06
     7   6     0.01  -0.00  -0.02     0.02   0.02  -0.03    -0.01  -0.06   0.03
     8   6     0.00  -0.01  -0.01    -0.04  -0.01   0.02     0.05  -0.02  -0.06
     9   6     0.00  -0.01   0.01     0.00  -0.01   0.03     0.01   0.02  -0.03
    10   6    -0.00  -0.01  -0.01     0.00   0.01   0.03    -0.01   0.02   0.03
    11   1    -0.16  -0.08   0.26     0.25   0.07  -0.32     0.16  -0.00  -0.23
    12   1     0.17   0.40   0.05    -0.02  -0.02  -0.04     0.11   0.21  -0.05
    13   1    -0.14  -0.16  -0.36     0.21  -0.02   0.06    -0.05  -0.04  -0.11
    14   1     0.14  -0.16   0.36     0.21   0.02   0.06     0.05  -0.04   0.11
    15   1    -0.17   0.40  -0.05    -0.02   0.02  -0.04    -0.11   0.21   0.05
    16   1    -0.00  -0.13  -0.09    -0.09   0.36   0.27    -0.16   0.39   0.32
    17   1     0.16  -0.08  -0.26     0.25  -0.07  -0.32    -0.16  -0.00   0.23
    18   1     0.00  -0.13   0.09    -0.09  -0.36   0.27     0.16   0.39  -0.32
    19   1     0.01   0.00  -0.03    -0.10   0.19   0.07     0.10  -0.14  -0.10
    20   1    -0.04  -0.02   0.02    -0.03  -0.09  -0.00     0.03   0.10   0.00
    21   1    -0.01   0.00   0.03    -0.10  -0.19   0.07    -0.10  -0.14   0.10
    22   1     0.04  -0.02  -0.02    -0.03   0.09  -0.00    -0.03   0.10  -0.00
                     34                     35                     36
                      A                      A                      A
 Frequencies --   1129.8356              1149.9586              1195.4165
 Red. masses --      1.4715                 1.1571                 1.2858
 Frc consts  --      1.1067                 0.9015                 1.0826
 IR Inten    --      7.6843                 2.4342                 1.7925
  Atom  AN      X      Y      Z        X      Y      Z        X      Y      Z
     1   6    -0.01  -0.06  -0.01    -0.01  -0.02  -0.00     0.00   0.03   0.01
     2   6     0.04   0.01  -0.06     0.02   0.00  -0.03    -0.00  -0.02   0.03
     3   6     0.03   0.05  -0.02    -0.01   0.01  -0.03    -0.08  -0.03  -0.04
     4   6     0.03  -0.05  -0.02     0.01   0.01   0.03    -0.08   0.03  -0.04
     5   6     0.04  -0.01  -0.06    -0.02   0.00   0.03    -0.00   0.02   0.03
     6   6     0.01  -0.04   0.07     0.03  -0.02   0.05     0.01   0.00   0.00
     7   6    -0.01   0.06  -0.01     0.01  -0.02   0.00     0.00  -0.03   0.01
     8   6     0.01   0.04   0.07    -0.03  -0.02  -0.05     0.01  -0.00   0.00
     9   6    -0.04  -0.02   0.02     0.02   0.00  -0.02     0.02   0.03   0.01
    10   6    -0.04   0.02   0.02    -0.02   0.00   0.02     0.02  -0.03   0.01
    11   1    -0.01  -0.05  -0.07    -0.01  -0.01  -0.05    -0.01   0.04  -0.01
    12   1     0.10   0.16  -0.05     0.05   0.05  -0.02    -0.01   0.11   0.02
    13   1    -0.25   0.06  -0.06     0.01   0.02  -0.01     0.51  -0.01   0.11
    14   1    -0.25  -0.06  -0.06    -0.01   0.02   0.01     0.51   0.01   0.11
    15   1     0.10  -0.16  -0.05    -0.05   0.05   0.02    -0.01  -0.11   0.02
    16   1    -0.16   0.19   0.15    -0.09   0.05   0.03     0.02  -0.06  -0.04
    17   1    -0.01   0.05  -0.07     0.01  -0.01   0.05    -0.01  -0.04  -0.01
    18   1    -0.16  -0.19   0.15     0.09   0.05  -0.03     0.02   0.06  -0.04
    19   1     0.18  -0.37  -0.15    -0.28   0.44   0.24     0.22  -0.22  -0.22
    20   1    -0.16   0.20   0.15     0.19  -0.27  -0.18    -0.11   0.19   0.10
    21   1     0.18   0.37  -0.15     0.28   0.44  -0.24     0.22   0.22  -0.22
    22   1    -0.16  -0.20   0.15    -0.19  -0.27   0.18    -0.11  -0.19   0.10
                     37                     38                     39
                      A                      A                      A
 Frequencies --   1277.1010              1278.6559              1300.0082
 Red. masses --      1.9440                 1.9933                 1.4123
 Frc consts  --      1.8680                 1.9201                 1.4063
 IR Inten    --      7.0316                 2.5894                 0.6326
  Atom  AN      X      Y      Z        X      Y      Z        X      Y      Z
     1   6    -0.01   0.04   0.03     0.00  -0.04  -0.02    -0.02  -0.03   0.03
     2   6     0.01  -0.03  -0.04    -0.01   0.04   0.04    -0.02  -0.03   0.03
     3   6    -0.04  -0.01   0.05     0.06   0.01  -0.06     0.05  -0.03  -0.07
     4   6    -0.04   0.01   0.05    -0.06   0.01   0.06     0.05   0.03  -0.07
     5   6     0.01   0.03  -0.04     0.01   0.04  -0.04    -0.02   0.03   0.03
     6   6    -0.01  -0.05   0.02     0.02   0.05  -0.02    -0.00   0.07   0.02
     7   6    -0.01  -0.04   0.03    -0.00  -0.04   0.02    -0.02   0.03   0.03
     8   6    -0.01   0.05   0.02    -0.02   0.05   0.02    -0.00  -0.07   0.02
     9   6     0.09  -0.13  -0.08     0.09  -0.12  -0.08    -0.01  -0.01  -0.00
    10   6     0.09   0.13  -0.08    -0.09  -0.12   0.08    -0.01   0.01  -0.00
    11   1     0.02   0.05  -0.02    -0.01  -0.05   0.01     0.16   0.07  -0.28
    12   1     0.04   0.00  -0.04    -0.04  -0.04   0.04     0.07   0.31   0.04
    13   1    -0.04  -0.06  -0.06    -0.04   0.07   0.05    -0.16   0.18   0.34
    14   1    -0.04   0.06  -0.06     0.04   0.07  -0.05    -0.16  -0.18   0.34
    15   1     0.04  -0.00  -0.04     0.04  -0.04  -0.04     0.07  -0.31   0.04
    16   1     0.01  -0.12  -0.01    -0.02   0.12  -0.00     0.07  -0.21  -0.15
    17   1     0.02  -0.05  -0.02     0.01  -0.05  -0.01     0.16  -0.07  -0.28
    18   1     0.01   0.12  -0.01     0.02   0.12   0.00     0.07   0.21  -0.15
    19   1    -0.15   0.25   0.13    -0.15   0.25   0.13    -0.07   0.08   0.05
    20   1    -0.28   0.43   0.25    -0.28   0.43   0.24    -0.05   0.08   0.05
    21   1    -0.15  -0.25   0.13     0.15   0.25  -0.13    -0.07  -0.08   0.05
    22   1    -0.28  -0.43   0.25     0.28   0.43  -0.24    -0.05  -0.08   0.05
                     40                     41                     42
                      A                      A                      A
 Frequencies --   1302.4081              1362.8779              1388.6355
 Red. masses --      1.4160                 2.4351                 3.0386
 Frc consts  --      1.4152                 2.6649                 3.4522
 IR Inten    --      0.2760                 5.7733                 5.1085
  Atom  AN      X      Y      Z        X      Y      Z        X      Y      Z
     1   6    -0.02  -0.03   0.03    -0.03  -0.02   0.02    -0.02   0.01   0.03
     2   6    -0.02  -0.03   0.02     0.03   0.15   0.04     0.01   0.15   0.07
     3   6     0.06  -0.02  -0.07     0.07  -0.11  -0.06     0.03  -0.16  -0.12
     4   6    -0.06  -0.02   0.07    -0.07  -0.11   0.06     0.03   0.16  -0.12
     5   6     0.02  -0.03  -0.02    -0.03   0.15  -0.04     0.01  -0.15   0.07
     6   6    -0.00   0.06   0.02     0.04  -0.07  -0.05     0.05  -0.09  -0.08
     7   6     0.02  -0.03  -0.03     0.03  -0.02  -0.02    -0.02  -0.01   0.03
     8   6     0.00   0.06  -0.02    -0.04  -0.07   0.05     0.05   0.09  -0.08
     9   6     0.00   0.01   0.00     0.02   0.09  -0.02    -0.02  -0.08   0.03
    10   6    -0.00   0.01  -0.00    -0.02   0.09   0.02    -0.02   0.08   0.03
    11   1     0.16   0.06  -0.28    -0.10  -0.06   0.14    -0.14  -0.03   0.19
    12   1     0.08   0.30   0.04    -0.10  -0.33   0.01    -0.09  -0.24   0.07
    13   1    -0.24   0.17   0.29    -0.41   0.01   0.15    -0.16   0.06   0.34
    14   1     0.24   0.17  -0.29     0.41   0.01  -0.15    -0.16  -0.06   0.34
    15   1    -0.08   0.30  -0.04     0.10  -0.33  -0.01    -0.09   0.24   0.07
    16   1     0.07  -0.22  -0.16    -0.04   0.18   0.09    -0.05   0.27   0.14
    17   1    -0.16   0.06   0.28     0.10  -0.06  -0.14    -0.14   0.03   0.19
    18   1    -0.07  -0.22   0.16     0.04   0.18  -0.09    -0.05  -0.27   0.14
    19   1     0.07  -0.07  -0.06     0.08  -0.10  -0.00    -0.03   0.04  -0.06
    20   1     0.06  -0.09  -0.06     0.07  -0.10  -0.12    -0.08   0.09   0.12
    21   1    -0.07  -0.07   0.06    -0.08  -0.10   0.00    -0.03  -0.04  -0.06
    22   1    -0.06  -0.09   0.06    -0.07  -0.10   0.12    -0.08  -0.09   0.12
                     43                     44                     45
                      A                      A                      A
 Frequencies --   1437.3319              1439.9843              1469.9631
 Red. masses --      2.5921                 2.2307                 1.1321
 Frc consts  --      3.1552                 2.7253                 1.4413
 IR Inten    --      9.4248                 4.3718                 9.1004
  Atom  AN      X      Y      Z        X      Y      Z        X      Y      Z
     1   6     0.09   0.11  -0.12     0.07   0.11  -0.08     0.01   0.02  -0.00
     2   6    -0.06  -0.14   0.07    -0.07  -0.11   0.07    -0.01  -0.03  -0.00
     3   6     0.04   0.02  -0.03     0.03  -0.01  -0.06     0.00   0.02   0.00
     4   6     0.04  -0.02  -0.03    -0.03  -0.01   0.06     0.00  -0.02   0.00
     5   6    -0.06   0.14   0.07     0.07  -0.11  -0.07    -0.01   0.03  -0.00
     6   6    -0.03  -0.06   0.01     0.00  -0.08  -0.02    -0.01  -0.01  -0.00
     7   6     0.09  -0.11  -0.12    -0.07   0.11   0.08     0.01  -0.02  -0.00
     8   6    -0.03   0.06   0.01    -0.00  -0.08   0.02    -0.01   0.01  -0.00
     9   6     0.00  -0.01  -0.01    -0.00   0.01   0.00    -0.04  -0.04   0.03
    10   6     0.00   0.01  -0.01     0.00   0.01  -0.00    -0.04   0.04   0.03
    11   1    -0.18  -0.02   0.33    -0.16   0.01   0.29    -0.00   0.01   0.02
    12   1     0.00   0.29   0.08     0.02   0.25   0.10     0.01   0.06   0.00
    13   1    -0.08   0.15   0.21    -0.09   0.14   0.23    -0.02   0.02   0.00
    14   1    -0.08  -0.15   0.21     0.09   0.14  -0.23    -0.02  -0.02   0.00
    15   1     0.00  -0.29   0.08    -0.02   0.25  -0.10     0.01  -0.06   0.00
    16   1    -0.07   0.18   0.19    -0.08   0.24   0.18    -0.02   0.03   0.03
    17   1    -0.18   0.02   0.33     0.16   0.01  -0.29    -0.00  -0.01   0.02
    18   1    -0.07  -0.18   0.19     0.08   0.24  -0.18    -0.02  -0.03   0.03
    19   1    -0.06  -0.06   0.16     0.04   0.12  -0.16     0.04   0.27  -0.39
    20   1    -0.11  -0.06  -0.01     0.18   0.09   0.00     0.45   0.22   0.06
    21   1    -0.06   0.06   0.16    -0.04   0.12   0.16     0.04  -0.27  -0.39
    22   1    -0.11   0.06  -0.01    -0.18   0.09  -0.00     0.45  -0.22   0.06
                     46                     47                     48
                      A                      A                      A
 Frequencies --   1470.3688              1517.0578              1538.0131
 Red. masses --      1.1604                 3.6565                 4.0680
 Frc consts  --      1.4782                 4.9581                 5.6695
 IR Inten    --      3.5686                 7.4874                 0.7444
  Atom  AN      X      Y      Z        X      Y      Z        X      Y      Z
     1   6     0.01   0.03  -0.00    -0.09   0.09   0.19     0.12  -0.06  -0.23
     2   6    -0.01  -0.04   0.00    -0.02  -0.10  -0.05    -0.02   0.06   0.06
     3   6     0.00   0.01  -0.01     0.00   0.04   0.03     0.01  -0.03  -0.03
     4   6    -0.00   0.01   0.01     0.00  -0.04   0.03    -0.01  -0.03   0.03
     5   6     0.01  -0.04  -0.00    -0.02   0.10  -0.05     0.02   0.06  -0.06
     6   6    -0.00  -0.02  -0.01     0.10  -0.11  -0.18    -0.10   0.11   0.20
     7   6    -0.01   0.03   0.00    -0.09  -0.09   0.19    -0.12  -0.06   0.23
     8   6     0.00  -0.02   0.01     0.10   0.11  -0.18     0.10   0.11  -0.20
     9   6     0.04   0.04  -0.03    -0.02   0.01   0.02    -0.01   0.01   0.02
    10   6    -0.04   0.04   0.03    -0.02  -0.01   0.02     0.01   0.01  -0.02
    11   1    -0.01   0.02   0.03     0.14   0.23  -0.19    -0.17  -0.23   0.23
    12   1     0.03   0.09   0.01     0.13   0.28  -0.01    -0.10  -0.23   0.05
    13   1     0.00   0.04   0.03    -0.04   0.02  -0.05     0.00  -0.00   0.03
    14   1    -0.00   0.04  -0.03    -0.04  -0.02  -0.05    -0.01  -0.00  -0.03
    15   1    -0.03   0.09  -0.01     0.13  -0.28  -0.01     0.10  -0.23  -0.05
    16   1    -0.02   0.06   0.04    -0.01   0.31   0.04    -0.01  -0.29  -0.02
    17   1     0.01   0.02  -0.03     0.14  -0.23  -0.19     0.17  -0.23  -0.23
    18   1     0.02   0.06  -0.04    -0.01  -0.31   0.04     0.01  -0.29   0.02
    19   1    -0.05  -0.26   0.40     0.03  -0.13   0.03     0.03  -0.14   0.05
    20   1    -0.44  -0.21  -0.06    -0.01  -0.21  -0.08    -0.04  -0.22  -0.08
    21   1     0.05  -0.26  -0.40     0.03   0.13   0.03    -0.03  -0.14  -0.05
    22   1     0.44  -0.21   0.06    -0.01   0.21  -0.08     0.04  -0.22   0.08
                     49                     50                     51
                      A                      A                      A
 Frequencies --   2982.8657              2983.0477              3082.2454
 Red. masses --      1.0717                 1.0720                 1.0889
 Frc consts  --      5.6179                 5.6206                 6.0951
 IR Inten    --    117.8921                18.8398                16.2423
  Atom  AN      X      Y      Z        X      Y      Z        X      Y      Z
     1   6     0.00   0.00  -0.00     0.00   0.00  -0.00     0.00  -0.00   0.00
     2   6    -0.00  -0.00   0.00    -0.00  -0.00   0.00    -0.00  -0.00   0.00
     3   6    -0.00  -0.00  -0.00    -0.00  -0.00   0.00     0.00  -0.00   0.00
     4   6    -0.00   0.00  -0.00     0.00  -0.00  -0.00    -0.00  -0.00  -0.00
     5   6    -0.00   0.00   0.00     0.00  -0.00  -0.00     0.00  -0.00  -0.00
     6   6    -0.00   0.00  -0.00    -0.00   0.00  -0.00     0.00   0.00  -0.00
     7   6     0.00  -0.00  -0.00    -0.00   0.00   0.00    -0.00  -0.00  -0.00
     8   6    -0.00  -0.00  -0.00     0.00   0.00   0.00    -0.00   0.00   0.00
     9   6    -0.05  -0.02  -0.01     0.05   0.02   0.01    -0.01   0.02  -0.05
    10   6    -0.05   0.02  -0.01    -0.05   0.02  -0.01     0.01   0.02   0.05
    11   1    -0.00  -0.00  -0.00    -0.00  -0.00  -0.00    -0.00   0.00  -0.00
    12   1    -0.00   0.00   0.00    -0.00   0.00  -0.00     0.00  -0.00  -0.01
    13   1     0.00   0.02  -0.01     0.00   0.02  -0.01     0.00   0.04  -0.02
    14   1     0.00  -0.02  -0.01    -0.00   0.02   0.01    -0.00   0.04   0.02
    15   1    -0.00  -0.00   0.00     0.00   0.00   0.00    -0.00  -0.00   0.01
    16   1    -0.00  -0.00   0.01    -0.00  -0.00   0.01    -0.01  -0.01   0.02
    17   1    -0.00   0.00  -0.00     0.00  -0.00   0.00     0.00   0.00   0.00
    18   1    -0.00   0.00   0.01     0.00  -0.00  -0.01     0.01  -0.01  -0.02
    19   1     0.60   0.24   0.27    -0.59  -0.24  -0.27     0.08   0.04   0.03
    20   1    -0.03   0.04  -0.11     0.03  -0.04   0.10     0.10  -0.30   0.62
    21   1     0.59  -0.24   0.27     0.60  -0.24   0.27    -0.08   0.04  -0.03
    22   1    -0.03  -0.04  -0.10    -0.03  -0.04  -0.10    -0.10  -0.30  -0.62
                     52                     53                     54
                      A                      A                      A
 Frequencies --   3083.6313              3133.4273              3141.5416
 Red. masses --      1.0896                 1.0902                 1.0893
 Frc consts  --      6.1043                 6.3068                 6.3342
 IR Inten    --     41.2819                 7.5788                44.2491
  Atom  AN      X      Y      Z        X      Y      Z        X      Y      Z
     1   6    -0.00   0.00  -0.00     0.00   0.00   0.00     0.00   0.00   0.00
     2   6    -0.00  -0.00   0.00     0.00   0.00  -0.00     0.00   0.00  -0.00
     3   6    -0.00  -0.00   0.00    -0.01  -0.06   0.02    -0.01  -0.06   0.02
     4   6    -0.00   0.00   0.00    -0.01   0.06   0.02     0.01  -0.06  -0.02
     5   6    -0.00   0.00   0.00     0.00  -0.00  -0.00    -0.00   0.00   0.00
     6   6    -0.00  -0.00   0.00    -0.00  -0.00   0.00    -0.00  -0.00   0.00
     7   6    -0.00  -0.00  -0.00     0.00  -0.00   0.00    -0.00   0.00  -0.00
     8   6    -0.00   0.00   0.00    -0.00   0.00   0.00     0.00  -0.00  -0.00
     9   6    -0.01   0.02  -0.05     0.00   0.00  -0.00    -0.00  -0.00   0.00
    10   6    -0.01  -0.02  -0.05     0.00  -0.00  -0.00     0.00  -0.00  -0.00
    11   1     0.00   0.00   0.00    -0.00  -0.00  -0.00    -0.00  -0.00  -0.00
    12   1     0.00  -0.00  -0.00    -0.03   0.00   0.05    -0.03   0.00   0.06
    13   1     0.00   0.00  -0.00     0.05   0.63  -0.30     0.05   0.63  -0.30
    14   1     0.00  -0.00  -0.00     0.05  -0.63  -0.30    -0.05   0.63   0.30
    15   1     0.00   0.00  -0.00    -0.03  -0.00   0.05     0.03   0.00  -0.06
    16   1     0.01   0.01  -0.02     0.01   0.01  -0.01     0.01   0.01  -0.01
    17   1     0.00  -0.00   0.00    -0.00   0.00  -0.00     0.00  -0.00   0.00
    18   1     0.01  -0.01  -0.02     0.01  -0.01  -0.01    -0.01   0.01   0.01
    19   1     0.09   0.04   0.03    -0.02  -0.01  -0.01     0.02   0.01   0.01
    20   1     0.10  -0.30   0.62    -0.00  -0.00   0.00    -0.00   0.02  -0.04
    21   1     0.09  -0.04   0.03    -0.02   0.01  -0.01    -0.02   0.01  -0.01
    22   1     0.10   0.30   0.62    -0.00   0.00   0.00     0.00   0.02   0.04
                     55                     56                     57
                      A                      A                      A
 Frequencies --   3185.1217              3186.8084              3212.6065
 Red. masses --      1.0885                 1.0887                 1.0971
 Frc consts  --      6.5062                 6.5143                 6.6716
 IR Inten    --     13.8114                15.0937                16.1872
  Atom  AN      X      Y      Z        X      Y      Z        X      Y      Z
     1   6     0.00  -0.05  -0.02     0.00  -0.05  -0.02    -0.00   0.02   0.01
     2   6    -0.00   0.00   0.01    -0.00   0.00   0.01     0.01  -0.00  -0.01
     3   6    -0.00  -0.00   0.00    -0.00  -0.00   0.00    -0.00   0.00   0.00
     4   6    -0.00   0.00   0.00     0.00  -0.00  -0.00    -0.00  -0.00   0.00
     5   6    -0.00  -0.00   0.01     0.00   0.00  -0.01     0.01   0.00  -0.01
     6   6     0.01   0.01  -0.01     0.01   0.01  -0.01     0.03   0.03  -0.04
     7   6     0.00   0.05  -0.02    -0.00  -0.05   0.02    -0.00  -0.02   0.01
     8   6     0.01  -0.01  -0.01    -0.01   0.01   0.01     0.03  -0.03  -0.04
     9   6    -0.00   0.00  -0.00     0.00  -0.00   0.00     0.00   0.00  -0.00
    10   6    -0.00  -0.00  -0.00    -0.00  -0.00  -0.00     0.00  -0.00  -0.00
    11   1    -0.01   0.61   0.19    -0.01   0.61   0.18     0.00  -0.22  -0.07
    12   1     0.05  -0.01  -0.10     0.05  -0.01  -0.10    -0.07   0.01   0.14
    13   1     0.00   0.02  -0.01     0.00   0.01  -0.01     0.00  -0.00   0.00
    14   1     0.00  -0.02  -0.01    -0.00   0.01   0.01     0.00   0.00   0.00
    15   1     0.05   0.01  -0.10    -0.05  -0.01   0.10    -0.07  -0.01   0.15
    16   1    -0.13  -0.15   0.18    -0.14  -0.16   0.19    -0.31  -0.34   0.43
    17   1    -0.01  -0.61   0.19     0.01   0.61  -0.18     0.00   0.23  -0.07
    18   1    -0.13   0.15   0.18     0.14  -0.16  -0.19    -0.32   0.36   0.45
    19   1     0.00  -0.00  -0.00    -0.00  -0.00  -0.00    -0.00  -0.00  -0.00
    20   1     0.00  -0.00   0.01    -0.00   0.01  -0.01     0.00  -0.01   0.02
    21   1     0.00   0.00  -0.00     0.00  -0.00   0.00    -0.00   0.00  -0.00
    22   1     0.00   0.00   0.01     0.00   0.01   0.01     0.00   0.01   0.02
                     58                     59                     60
                      A                      A                      A
 Frequencies --   3212.7780              3232.2523              3233.0701
 Red. masses --      1.0975                 1.0971                 1.0978
[...]
 715,0.00005648,0.00043102,-0.00141090,-0.00358381,0.00351551,0.0009555
 0,0.00036502,0.00061927,-0.00098199,0.04864587,-0.00092468,0.00557449,
 -0.00325967,-0.12444431,0.02016411,-0.29092839,-0.00664779,-0.00423817
 ,-0.00584209,0.00031452,-0.00015692,-0.00032318,-0.00086313,0.00074455
 ,-0.00021984,-0.00219445,-0.00019373,-0.00086635,0.00021434,-0.0003015
 3,0.00100692,0.00135335,-0.00076329,-0.00140372,-0.00054391,-0.0004024
 1,-0.00028341,-0.00030584,0.00105215,-0.00038031,0.00075039,-0.0004958
 0,-0.00034054,0.13314252,-0.02230789,0.30247253,0.00421925,0.00023096,
 0.00144243,-0.00066231,-0.00525390,0.00274593,-0.03672433,-0.00689508,
 -0.02126198,-0.00920241,0.01501686,0.01468190,-0.00245880,-0.00455618,
 -0.00048292,-0.00298856,0.00144139,-0.00476482,-0.00086843,0.00119747,
 -0.00165215,-0.00063328,0.00118209,0.00157234,0.00208906,0.00058986,0.
 00072081,-0.00029283,-0.01982417,-0.00517255,0.00019942,-0.00022381,0.
 00007032,-0.00146942,0.00018239,0.00108666,0.04541394,0.00029471,-0.00
 399531,0.00191983,-0.00209507,-0.01575400,-0.01396222,-0.01513619,-0.2
 7592167,-0.10534465,-0.00083220,-0.00018169,0.00059401,-0.00022821,0.0
 0037974,-0.00017371,0.00064375,-0.00039702,0.00082567,-0.00010105,0.00
 063952,0.00010300,-0.00024162,-0.00024861,0.00050553,0.00009760,-0.000
 08165,-0.00023945,0.00135994,0.00133096,0.00159697,-0.00119096,-0.0004
 9906,-0.00028264,-0.00016525,0.00076847,0.00062291,0.01816694,0.292577
 75,-0.00209073,0.00315179,-0.00350963,0.00309994,0.02101560,0.01112612
 ,-0.02036743,-0.11224317,-0.09406642,0.00468106,-0.01003603,-0.0085526
 7,0.00172917,0.00181813,0.00028152,-0.00322458,-0.00133363,-0.00223012
 ,-0.00000762,-0.00031174,-0.00009104,0.00011432,0.00055523,-0.00045415
 ,-0.00099035,-0.00018156,0.00020837,0.00479083,-0.01531348,-0.00536653
 ,0.00087936,0.00062144,0.00040741,0.00090563,-0.00140449,-0.00015620,0
 .01238708,0.11386126,0.10030121,-0.00086856,-0.00119776,-0.00165225,-0
 .00245872,0.00455615,-0.00048340,-0.00920248,-0.01501542,0.01468363,-0
 .03672443,0.00689705,-0.02126475,-0.00066219,0.00525422,0.00274536,-0.
 00063341,-0.00118209,0.00157266,0.00421910,-0.00023063,0.00144224,-0.0
 0298862,-0.00144176,-0.00476455,-0.00029320,0.01982367,-0.00517474,0.0
 0208909,-0.00058979,0.00072089,0.00031080,-0.00013916,-0.00028096,0.00
 017696,-0.00013647,0.00001983,0.00140073,-0.00004651,-0.00050771,0.045
 41490,0.00010103,0.00063953,-0.00010312,0.00022835,0.00037963,0.000173
 69,0.00083255,-0.00018091,-0.00059463,0.01513813,-0.27589932,0.1053636
 5,0.00209575,-0.01575473,0.01396495,0.00024165,-0.00024875,-0.00050554
 ,-0.00029487,-0.00399581,-0.00191977,-0.00064414,-0.00039696,-0.000825
 91,-0.00135947,0.00133266,-0.00159771,-0.00009763,-0.00008164,0.000239
 50,-0.00007132,0.00005813,0.00005082,0.00004732,-0.00000786,-0.0000505
 5,0.00004647,0.00086832,0.00008246,-0.01816993,0.29255409,-0.00000757,
 0.00031171,-0.00009099,0.00172914,-0.00181824,0.00028174,0.00468122,0.
 01003542,-0.00855400,-0.02037122,0.11226233,-0.09408859,0.00310008,-0.
 02101290,0.01112667,0.00011435,-0.00055527,-0.00045415,-0.00209075,-0.
 00315174,-0.00350900,-0.00322445,0.00133327,-0.00223007,0.00479057,0.0
 1531272,-0.00536799,-0.00099045,0.00018161,0.00020836,-0.00014865,0.00
 001373,0.00011031,-0.00012238,0.00009588,0.00005054,-0.00050774,-0.000
 08258,-0.00011549,0.01239105,-0.11388131,0.10032473,-0.00102519,-0.000
 96006,-0.00287910,0.00203186,0.00231471,0.00102188,-0.00138398,-0.0010
 1742,0.00171405,0.00276794,0.00064310,0.00106886,-0.07963810,-0.000492
 66,-0.12450579,-0.00336518,-0.00097035,0.00446019,-0.00474485,-0.00356
 903,-0.01213386,0.00132347,0.00356798,-0.00027314,0.00201100,-0.000094
 98,-0.00185499,0.00030991,-0.00046633,-0.00005277,0.00000576,-0.000006
 43,-0.00007813,-0.00032622,0.00013325,0.00005146,0.00017696,-0.0000473
 2,-0.00012238,-0.00146942,0.00016532,0.00090562,0.08444083,-0.00009090
 ,-0.00016079,-0.00069065,0.00080388,-0.00007486,0.00063586,-0.00045025
 ,-0.00044608,-0.00042558,-0.01170169,0.00530076,-0.01908309,0.00165420
 ,-0.05626385,-0.02251508,-0.00081558,-0.00033106,0.00109692,0.00611074
 ,0.00828728,0.01938497,0.00260193,-0.00358798,0.00287549,0.00141088,-0
 .00358423,-0.00351520,0.00042714,0.00005648,-0.00043107,0.00003236,0.0
 0000308,0.00000618,-0.00013325,0.00000415,0.00002218,0.00013650,-0.000
 00786,-0.00009589,-0.00018232,0.00076858,0.00140442,0.00099573,0.04865
 029,0.00021439,0.00030167,0.00100711,-0.00086321,-0.00074467,-0.000219
 92,0.00031468,0.00015698,-0.00032324,-0.00664666,0.00423705,-0.0058403
 5,-0.12444445,-0.02018968,-0.29092423,0.00135363,0.00076332,-0.0014041
 5,-0.00092477,-0.00557558,-0.00326066,-0.00219460,0.00019385,-0.000866
 79,-0.00030596,-0.00105174,-0.00037982,-0.00054402,0.00040236,-0.00028
 339,0.00000758,-0.00000998,0.00001621,0.00005149,-0.00002218,0.0000550
 2,0.00001980,0.00005055,0.00005055,0.00108669,-0.00062298,-0.00015628,
 0.13314156,0.02233529,0.30246788,-0.00092624,-0.00675471,-0.00387794,0
 .00295863,0.00032172,-0.00483082,-0.00082931,-0.00028647,-0.00106507,0
 .00036227,0.00009797,0.00032491,-0.00016917,0.00013828,-0.00047169,-0.
 10447780,-0.07965015,-0.11195065,0.00049105,-0.00047541,0.00041210,-0.
 00009350,-0.00001698,-0.00048880,0.00019159,0.00046473,0.00010440,0.00
 237723,0.00293006,0.00399985,-0.00274995,0.00070738,0.00185267,0.00035
 648,-0.00111120,-0.00034202,0.00066974,-0.00011048,-0.00089921,-0.0000
 4050,-0.00009399,-0.00006340,0.00001536,-0.00014088,0.00018744,0.10219
 182,0.00702289,0.01027843,0.00868414,0.00060553,-0.00083079,0.00301984
 ,0.00130994,-0.00562374,-0.00006346,0.00041945,-0.00007397,-0.00022127
 ,0.00017377,-0.00008230,-0.00012559,-0.07886355,-0.14155352,-0.1073732
 4,-0.00011153,0.00020896,-0.00004163,-0.00018819,-0.00006555,0.0002368
 2,-0.00001950,0.00012667,-0.00003375,-0.01404911,-0.00458460,-0.017514
 02,-0.00009365,0.00024295,-0.00112966,0.00013699,0.00086011,0.00027662
 ,-0.00151008,0.00006637,-0.00091990,0.00004075,0.00004902,-0.00005727,
 -0.00010752,-0.00001635,0.00012762,0.08466084,0.14047999,-0.01031360,-
 0.01769392,-0.00820234,-0.00337989,0.00226571,-0.00206918,0.00059534,0
 .00208569,0.00030629,0.00001368,-0.00001928,-0.00025495,0.00001362,0.0
 0008310,0.00056934,-0.10789557,-0.10327745,-0.18179228,-0.00026399,0.0
 0014931,-0.00025909,0.00009757,0.00014583,0.00028931,-0.00007697,-0.00
 027036,-0.00002880,0.00262533,0.00311678,0.00244991,0.00213240,0.00013
 807,-0.00042995,-0.00081970,-0.00068442,-0.00018158,-0.00021053,0.0000
 2457,0.00090826,-0.00001579,0.00005557,0.00007957,-0.00009902,0.000017
 17,0.00003747,0.11766893,0.11473852,0.18810423,0.00022009,-0.00009531,
 0.00026115,-0.00014823,-0.00006733,0.00013040,-0.00001117,-0.00104901,
 -0.00045285,0.00289839,0.00316010,-0.00460728,0.00173486,0.01359379,0.
 00592907,0.00044889,-0.00001316,-0.00052870,-0.04196825,-0.00198883,-0
 .00738398,0.00320667,-0.01291439,-0.00288301,0.00510872,0.00020054,-0.
 00625887,-0.00000546,0.00002734,0.00001359,-0.00013717,-0.00004388,0.0
 0011650,0.00000576,-0.00003236,0.00000758,0.00031077,0.00007131,-0.000
 14864,0.00019940,0.00119106,0.00087925,-0.00155019,-0.00095543,0.00075
 038,-0.00009897,0.00001782,0.00001910,0.03252417,-0.00013087,-0.000203
 83,-0.00016830,-0.00009682,0.00026198,-0.00035808,-0.00040494,-0.00024
 486,0.00038151,0.00141776,-0.00246976,0.00128534,-0.00350870,-0.011325
 28,-0.00986776,-0.00010858,0.00031205,0.00041201,0.00082192,-0.3148686
 6,-0.07860902,0.00177198,-0.00369689,0.00150569,0.00141519,0.00033982,
 -0.00146569,0.00004752,-0.00006733,-0.00005807,0.00004388,0.00016218,-
 0.00007651,0.00000641,0.00000308,0.00000998,0.00013914,0.00005813,-0.0
 0001373,0.00022382,-0.00049906,-0.00062132,-0.00008390,0.00036497,0.00
 049574,0.00013183,0.00000491,-0.00002446,-0.00070178,0.33198160,-0.000
 02463,-0.00007453,0.00007569,0.00016308,-0.00017748,0.00002340,0.00049
 035,0.00076274,-0.00014654,-0.00427349,0.00251865,0.00004169,0.0016985
 4,0.01331546,0.00950112,-0.00007694,0.00004788,0.00032007,-0.00889436,
 -0.07654234,-0.07933335,0.00091467,-0.02470128,0.00187900,-0.00434422,
 -0.00164534,-0.00199010,0.00001927,-0.00000605,-0.00007077,0.00011650,
 0.00007649,-0.00006547,-0.00007812,-0.00000618,0.00001621,-0.00028097,
 -0.00005082,0.00011031,0.00007030,0.00028271,0.00040743,0.00126052,-0.
 00061931,-0.00034052,-0.00000377,-0.00002626,-0.00001241,0.01146777,0.
 08724072,0.07021822,0.00049099,0.00047539,0.00041200,-0.00016909,-0.00
 013835,-0.00047153,0.00036232,-0.00009793,0.00032493,-0.00082909,0.000
 28650,-0.00106504,0.00295868,-0.00032233,-0.00483094,-0.00009349,0.000
 01694,-0.00048869,-0.00092657,0.00675467,-0.00387906,-0.10448517,0.079
 64091,-0.11196094,0.00237694,-0.00292940,0.00399944,0.00019164,-0.0004
 6476,0.00010440,-0.00009896,-0.00013182,-0.00000376,0.00001534,0.00014
 089,0.00018741,-0.00004049,0.00009397,-0.00006341,0.00066963,0.0001103
 9,-0.00089921,0.00035638,0.00111122,-0.00034214,0.00002628,0.00001898,
 -0.00001518,-0.00274994,-0.00070729,0.00185282,0.10219964,0.00011151,0
 .00020895,0.00004159,-0.00017373,-0.00008232,0.00012567,-0.00041939,-0
 .00007393,0.00022124,-0.00130978,-0.00562389,0.00006403,-0.00060585,-0
 .00083139,-0.00302005,0.00018822,-0.00006557,-0.00023680,-0.00702431,0
 .01027931,-0.00868600,0.07885504,-0.14152836,0.10736415,0.01404970,-0.
 00458293,0.01751468,0.00001949,0.00012668,0.00003374,-0.00001782,0.000
 00492,0.00002626,0.00010749,-0.00001635,-0.00012759,-0.00004075,0.0000
 4902,0.00005727,0.00151009,0.00006649,0.00091992,-0.00013708,0.0008601
 8,-0.00027673,-0.00001898,0.00002722,0.00000658,0.00009380,0.00024304,
 0.00112964,-0.08465143,0.14045271,-0.00026397,-0.00014934,-0.00025905,
 0.00001359,-0.00008298,0.00056926,0.00001369,0.00001927,-0.00025501,0.
 00059546,-0.00208514,0.00030648,-0.00337992,-0.00226579,-0.00206840,0.
 00009754,-0.00014580,0.00028930,-0.01031337,0.01769159,-0.00820289,-0.
 10790630,0.10326850,-0.18180851,0.00262407,-0.00311601,0.00244850,-0.0
 0007701,0.00027038,-0.00002881,0.00001910,0.00002446,-0.00001241,-0.00
 009900,-0.00001717,0.00003747,-0.00001579,-0.00005556,0.00007957,-0.00
 021065,-0.00002448,0.00090817,-0.00081973,0.00068422,-0.00018157,-0.00
 001518,-0.00000658,0.00001337,0.00213248,-0.00013806,-0.00043016,0.117
 68071,-0.11472851,0.18812189,-0.00060698,0.00001155,-0.00048020,-0.000
 23452,0.00185369,-0.00121999,-0.00321903,-0.00157003,0.00013072,-0.019
 30011,-0.00813315,0.00670468,0.00002904,0.00194571,-0.00006056,-0.0006
 5249,-0.00006368,-0.00000119,0.00074832,0.00048978,0.00097509,0.003206
 39,-0.00154859,-0.00109004,-0.22243109,-0.07080532,0.08016547,-0.00041
 464,-0.00075039,0.00046709,-0.00000911,-0.00009877,-0.00000560,0.00021
 322,-0.00002674,-0.00002776,0.00036529,0.00005434,-0.00017505,0.000826
 61,0.00061848,0.00003162,0.00007434,-0.00007360,-0.00025965,0.00007040
 ,-0.00003599,-0.00008770,-0.00020929,-0.00015262,0.00004177,-0.0003600
 2,-0.00056573,-0.00006421,0.24630981,-0.00025748,0.00019419,-0.0003573
 8,-0.00047171,-0.00013606,0.00034347,0.00106540,0.00018145,0.00118563,
 0.00749912,0.00224757,-0.00223412,-0.00036094,0.00004034,0.00082057,0.
 00002718,-0.00040356,-0.00029811,0.00180582,-0.00257705,0.00249367,-0.
 02727994,-0.01734115,0.00706941,-0.07623061,-0.06695236,0.03039482,0.0
 0045449,0.00005624,-0.00015938,0.00003338,0.00000492,0.00000489,0.0001
 2987,-0.00005661,0.00007713,-0.00017705,0.00015180,0.00020014,-0.00019
 886,0.00023432,-0.00029285,-0.00006863,0.00000620,0.00000147,-0.000125
 51,0.00004838,0.00007419,0.00143120,0.00015774,-0.00101919,0.00083251,
 -0.00018333,-0.00002604,0.08031395,0.07908365,-0.00067820,-0.00082630,
 -0.00162570,0.00111376,0.00200900,-0.00031632,-0.00184672,-0.00073936,
 0.00048848,-0.01578893,-0.00737860,0.00421400,0.00126743,-0.00151892,0
 .00132088,-0.00109304,-0.00035094,0.00158035,-0.00293343,0.00103228,-0
 .00268169,0.00176871,0.00404068,0.00043937,0.08050589,0.02747201,-0.07
 787002,0.00023827,-0.00024866,-0.00012943,0.00005196,-0.00000164,-0.00
 006819,-0.00036533,0.00008787,0.00042803,0.00001017,0.00016070,0.00008
 039,0.00066985,0.00025231,0.00086342,0.00022777,0.00008325,-0.00030886
 ,-0.00008573,0.00000188,0.00007209,0.00031220,0.00003345,-0.00024364,-
 0.00019672,0.00040747,0.00022013,-0.08750037,-0.03386122,0.08450421,0.
 00028843,-0.00000204,0.00038949,-0.00063397,-0.00071294,-0.00004045,0.
 00009818,-0.00059864,-0.00212767,0.00163536,-0.01213730,-0.01764475,-0
 .00356341,0.00216836,-0.00405915,0.00039932,0.00028975,-0.00017876,0.0
 0181321,-0.00007451,0.00066135,-0.00223078,-0.00256887,0.00093029,-0.0
 5050175,0.02153396,0.03710008,-0.00017484,0.00028387,0.00015724,0.0000
 0802,0.00004443,0.00003538,-0.00025506,-0.00037572,0.00004508,-0.00020
 527,0.00033404,-0.00009106,-0.00012566,0.00030328,0.00006904,0.0000311
 6,-0.00114316,-0.00061946,0.00009908,0.00000259,-0.00002798,0.00022207
 ,-0.00017829,-0.00014886,-0.00006449,-0.00000387,0.00010420,-0.0043330
 8,0.01139361,0.02435986,0.05749462,-0.00041253,-0.00017278,-0.00058020
 ,0.00011099,0.00012326,-0.00032630,-0.00008799,0.00046685,0.00060774,-
 0.00218392,0.00330081,0.00703474,0.00243046,-0.00068251,0.00076179,-0.
 00016445,-0.00032695,0.00033166,0.00070135,-0.00599177,-0.00020849,0.0
 0297674,-0.00953763,-0.02908783,0.01881117,-0.09392557,-0.09934206,0.0
 0011122,-0.00006791,0.00000348,0.00002333,-0.00000458,-0.00001252,-0.0
 0031465,-0.00018273,0.00043105,-0.00009163,0.00004178,0.00011612,-0.00
 004364,-0.00007927,-0.00008128,0.00001689,0.00041053,-0.00006430,-0.00
 005905,0.00001419,0.00006188,-0.00186879,-0.00051418,-0.00051314,-0.00
 022356,0.00060701,0.00101909,-0.00131361,0.00500351,0.00952568,-0.0184
 7098,0.10140334,0.00004159,-0.00026925,-0.00044658,0.00059360,0.000666
 10,0.00099362,0.00183477,-0.00017887,-0.00060875,0.00420735,-0.0080932
 6,-0.01345326,-0.00205789,-0.00018551,-0.00222258,0.00042293,-0.000261
 02,0.00060447,0.00008670,0.00136060,-0.00138076,-0.00078646,0.00193154
 ,0.00517898,0.03361000,-0.10038219,-0.25478655,0.00026094,0.00059730,-
 0.00014222,0.00006181,0.00000927,-0.00005276,-0.00012716,0.00010373,0.
 00046834,-0.00059590,0.00044069,0.00052616,-0.00046197,0.00026173,-0.0
 0040106,-0.00054047,-0.00097859,-0.00004080,-0.00020390,0.00005685,0.0
 0013610,0.00013009,0.00004420,0.00016072,-0.00005545,-0.00077784,0.000
 04446,0.00264770,-0.00459564,-0.01080762,-0.03898380,0.11028535,0.2761
 9809,0.00074847,-0.00048957,0.00097530,0.00002905,-0.00194579,-0.00006
 039,-0.01930011,0.00813311,0.00670371,-0.00321911,0.00157004,0.0001306
 0,-0.00023456,-0.00185380,-0.00121984,0.00320537,0.00154906,-0.0010898
 7,-0.00060697,-0.00001165,-0.00048013,-0.00065243,0.00006364,-0.000001
 26,-0.00041467,0.00075043,0.00046706,-0.22243725,0.07080819,0.08015906
 ,-0.00020926,0.00015261,0.00004171,0.00007435,0.00007356,-0.00025967,0
 .00082659,-0.00061845,0.00003166,0.00036531,-0.00005436,-0.00017506,0.
 00021324,0.00002675,-0.00002777,-0.00036000,0.00056572,-0.00006428,-0.
 00000912,0.00009877,-0.00000561,0.00007041,0.00003599,-0.00008772,-0.0
 0004501,0.00014140,-0.00003604,-0.00002804,0.00000785,-0.00015577,0.24
 631665,-0.00180585,-0.00257733,-0.00249366,0.00036102,0.00004041,-0.00
 082042,-0.00750132,0.00224845,0.00223443,-0.00106564,0.00018136,-0.001
 18569,0.00047187,-0.00013636,-0.00034347,0.02728059,-0.01734129,-0.007
 06755,0.00025746,0.00019432,0.00035718,-0.00002725,-0.00040354,0.00029
 828,-0.00045450,0.00005629,0.00015939,0.07623351,-0.06695287,-0.030392
 55,-0.00143115,0.00015780,0.00101905,0.00006865,0.00000619,-0.00000151
 ,0.00019896,0.00023428,0.00029290,0.00017705,0.00015177,-0.00020017,-0
 .00012991,-0.00005664,-0.00007708,-0.00083253,-0.00018337,0.00002606,-
 0.00003337,0.00000492,-0.00000490,0.00012549,0.00004838,-0.00007418,-0
 .00014141,0.00017781,-0.00016263,-0.00004281,0.00006200,-0.00001594,-0
 .08031712,0.07908467,-0.00293322,-0.00103236,-0.00268140,0.00126716,0.
 00151917,0.00132086,-0.01578858,0.00737834,0.00421306,-0.00184667,0.00
 073941,0.00048848,0.00111372,-0.00200903,-0.00031611,0.00176645,-0.004
 03913,0.00044032,-0.00067821,0.00082611,-0.00162574,-0.00109294,0.0003
 5104,0.00158022,0.00023827,0.00024866,-0.00012945,0.08049894,-0.027469
 74,-0.07786366,0.00031233,-0.00003349,-0.00024371,0.00022781,-0.000083
 29,-0.00030886,0.00066986,-0.00025226,0.00086338,0.00001016,-0.0001607
 2,0.00008043,-0.00036533,-0.00008784,0.00042804,-0.00019663,-0.0004074
 3,0.00022016,0.00005195,0.00000163,-0.00006819,-0.00008574,-0.00000188
 ,0.00007210,-0.00003604,0.00016260,-0.00012213,-0.00000138,0.00001830,
 -0.00003773,-0.08749311,0.03385830,0.08449679,0.00181325,0.00007481,0.
 00066133,-0.00356322,-0.00216883,-0.00405890,0.00163513,0.01213568,-0.
 01764553,0.00009809,0.00059843,-0.00212774,-0.00063398,0.00071295,-0.0
 0004053,-0.00223083,0.00256916,0.00092913,0.00028841,0.00000207,0.0003
 8946,0.00039930,-0.00028974,-0.00017871,-0.00017483,-0.00028385,0.0001
 5727,-0.05050134,-0.02153008,0.03710101,0.00022202,0.00017829,-0.00014
 889,0.00003116,0.00114308,-0.00061958,-0.00012562,-0.00030328,0.000069
 12,-0.00020532,-0.00033406,-0.00009105,-0.00025509,0.00037573,0.000045
 05,-0.00006451,0.00000385,0.00010424,0.00000802,-0.00004443,0.00003538
 ,0.00009908,-0.00000259,-0.00002798,-0.00002804,0.00004281,-0.00000138
 ,0.00002689,0.00004477,0.00007127,-0.00433292,-0.01139173,0.02436119,0
 .05749435,-0.00070108,-0.00599195,0.00020900,-0.00243073,-0.00068268,-
 0.00076209,0.00218437,0.00330134,-0.00703685,0.00008812,0.00046678,-0.
 00060787,-0.00011100,0.00012316,0.00032644,-0.00297677,-0.00953498,0.0
 2908909,0.00041258,-0.00017268,0.00058014,0.00016448,-0.00032697,-0.00
 033157,-0.00011118,-0.00006796,-0.00000348,-0.01880758,-0.09390856,0.0
 9932842,0.00186875,-0.00051407,0.00051330,-0.00001696,0.00041066,0.000
 06423,0.00004361,-0.00007928,0.00008127,0.00009155,0.00004174,-0.00011
 608,0.00031463,-0.00018281,-0.00043096,0.00022355,0.00060699,-0.001019
 13,-0.00002332,-0.00000458,0.00001251,0.00005902,0.00001418,-0.0000618
 7,-0.00000787,0.00006200,-0.00001830,-0.00004477,0.00005261,-0.0000192
 4,0.00131362,0.00500272,-0.00952636,0.01846696,0.10138432,0.00008683,-
 0.00136016,-0.00138065,-0.00205779,0.00018529,-0.00222259,0.00420721,0
 .00809205,-0.01345352,0.00183473,0.00017884,-0.00060871,0.00059364,-0.
 00066605,0.00099367,-0.00078613,-0.00193025,0.00517643,0.00004158,0.00
 026923,-0.00044666,0.00042290,0.00026110,0.00060445,0.00026095,-0.0005
 9730,-0.00014216,0.03361052,0.10036852,-0.25480504,0.00012989,-0.00004
 414,0.00016070,-0.00054047,0.00097856,-0.00004091,-0.00046194,-0.00026
 179,-0.00040100,-0.00059589,-0.00044067,0.00052623,-0.00012719,-0.0001
 0365,0.00046832,-0.00005549,0.00077779,0.00004448,0.00006181,-0.000009
 27,-0.00005275,-0.00020390,-0.00005685,0.00013612,-0.00015576,0.000015
 93,-0.00003773,0.00007128,0.00001924,0.00006971,0.00264741,0.00459416,
 -0.01080686,-0.03898417,-0.11027059,0.27621848\\-0.00016054,-0.0003178
 3,-0.00062992,-0.00134795,0.00076429,0.00050038,-0.00423861,-0.0000574
 4,0.00339776,0.00423837,-0.00005794,-0.00339878,0.00134813,0.00076507,
 -0.00049964,-0.00114836,-0.00020455,0.00045764,0.00016053,-0.00031809,
 0.00063031,0.00114793,-0.00020366,-0.00045834,0.00056997,-0.00019921,-
 0.00036110,-0.00056972,-0.00019825,0.00036124,0.00011448,-0.00004665,-
 0.00010303,0.00003163,-0.00002190,-0.00002140,-0.00000721,0.00011562,0
 .00008036,0.00000716,0.00011545,-0.00008020,-0.00003179,-0.00002191,0.
 00002119,-0.00006905,0.00000120,0.00000700,-0.00011444,-0.00004645,0.0
 0010306,0.00006941,0.00000082,-0.00000660,0.00014441,-0.00002182,0.000
 14552,-0.00010577,-0.00001235,-0.00005349,-0.00014433,-0.00002196,-0.0
 0014555,0.00010576,-0.00001244,0.00005360\\\@


 MOM AND DAD WENT TO ALPHA CENTAURI AND ALL
 I GOT WAS THIS DUMB T-SHIRT.
 Job cpu time:       0 days  1 hours  4 minutes  5.9 seconds.
 Elapsed time:       0 days  0 hours  0 minutes 41.1 seconds.
 File lengths (MBytes):  RWF=    182 Int=      0 D2E=      0 Chk=     10 Scr=      1
 Normal termination of Gaussian 16 at Mon Jul 28 00:16:37 2025.
