 Entering Gaussian System, Link 0=g16
 Initial command:
 /home/hongchang/data/software/Gaussian/g16/l1.exe "/home/hongchang/data/software/Gaussian/g16/scratch/Gau-1397771.inp" -scrdir="/home/hongchang/data/software/Gaussian/g16/scratch/"
 Entering Link 1 = /home/hongchang/data/software/Gaussian/g16/l1.exe PID=   1397772.
  
 Copyright (c) 1988,1990,1992,1993,1995,1998,2003,2009,2016,
            Gaussian, Inc.  All Rights Reserved.
  
 This is part of the Gaussian(R) 16 program.  It is based on
 the Gaussian(R) 09 system (copyright 2009, Gaussian, Inc.),
 the Gaussian(R) 03 system (copyright 2003, Gaussian, Inc.),
 the Gaussian(R) 98 system (copyright 1998, Gaussian, Inc.),
 the Gaussian(R) 94 system (copyright 1995, Gaussian, Inc.),
 the Gaussian 92(TM) system (copyright 1992, Gaussian, Inc.),
 the Gaussian 90(TM) system (copyright 1990, Gaussian, Inc.),
 the Gaussian 88(TM) system (copyright 1988, Gaussian, Inc.),
 the Gaussian 86(TM) system (copyright 1986, Carnegie Mellon
 University), and the Gaussian 82(TM) system (copyright 1983,
 Carnegie Mellon University). Gaussian is a federally registered
 trademark of Gaussian, Inc.
  
 This software contains proprietary and confidential information,
 including trade secrets, belonging to Gaussian, Inc.
  
 This software is provided under written license and may be
 used, copied, transmitted, or stored only in accord with that
 written license.
  
 The following legend is applicable only to US Government
 contracts under FAR:
  
                    RESTRICTED RIGHTS LEGEND
  
 Use, reproduction and disclosure by the US Government is
 subject to restrictions as set forth in subparagraphs (a)
 and (c) of the Commercial Computer Software - Restricted
 Rights clause in FAR 52.227-19.
  
 Gaussian, Inc.
 340 Quinnipiac St., Bldg. 40, Wallingford CT 06492
  
  
 ---------------------------------------------------------------
 Warning -- This program may not be used in any manner that
 competes with the business of Gaussian, Inc. or will provide
 assistance to any competitor of Gaussian, Inc.  The licensee
 of this program is prohibited from giving any competitor of
 Gaussian, Inc. access to this program.  By using this program,
 the user acknowledges that Gaussian, Inc. is engaged in the
 business of creating and licensing software in the field of
 computational chemistry and represents and warrants to the
 licensee that it is not a competitor of Gaussian, Inc. and that
 it will not use this program in any manner prohibited above.
 ---------------------------------------------------------------
  

 Cite this work as:
 Gaussian 16, Revision A.03,
 M. J. Frisch, G. W. Trucks, H. B. Schlegel, G. E. Scuseria, 
 M. A. Robb, J. R. Cheeseman, G. Scalmani, V. Barone, 
 G. A. Petersson, H. Nakatsuji, X. Li, M. Caricato, A. V. Marenich, 
 J. Bloino, B. G. Janesko, R. Gomperts, B. Mennucci, H. P. Hratchian, 
 J. V. Ortiz, A. F. Izmaylov, J. L. Sonnenberg, D. Williams-Young, 
 F. Ding, F. Lipparini, F. Egidi, J. Goings, B. Peng, A. Petrone, 
 T. Henderson, D. Ranasinghe, V. G. Zakrzewski, J. Gao, N. Rega, 
 G. Zheng, W. Liang, M. Hada, M. Ehara, K. Toyota, R. Fukuda, 
 J. Hasegawa, M. Ishida, T. Nakajima, Y. Honda, O. Kitao, H. Nakai, 
 T. Vreven, K. Throssell, J. A. Montgomery, Jr., J. E. Peralta, 
 F. Ogliaro, M. J. Bearpark, J. J. Heyd, E. N. Brothers, K. N. Kudin, 
 V. N. Staroverov, T. A. Keith, R. Kobayashi, J. Normand, 
 K. Raghavachari, A. P. Rendell, J. C. Burant, S. S. Iyengar, 
 J. Tomasi, M. Cossi, J. M. Millam, M. Klene, C. Adamo, R. Cammi, 
 J. W. Ochterski, R. L. Martin, K. Morokuma, O. Farkas, 
 J. B. Foresman, and D. J. Fox, Gaussian, Inc., Wallingford CT, 2016.
 
 ******************************************
 Gaussian 16:  ES64L-G16RevA.03 25-Dec-2016
                28-Jul-2025 
 ******************************************
 %nprocshared=96
 Will use up to   96 processors via shared memory.
 %mem=600GB
 %chk=01_02_path2_6.chk
 -----------------------------------------------------------
 # freq b3lyp/6-311g(d,p) em=gd3bj scrf(solvent=Cis-Decalin)
 -----------------------------------------------------------
 1/10=4,30=1,38=1/1,3;
 2/12=2,17=6,18=5,40=1/2;
 3/5=4,6=6,7=101,11=2,25=1,30=1,70=2201,71=2,72=99,74=-5,124=41,140=1/1,2,3;
 4//1;
 5/5=2,38=5,53=99,98=1/2;
 8/6=4,10=90,11=11/1;
 11/6=1,8=1,9=11,15=111,16=1/1,2,10;
 10/6=1/2;
 6/7=2,8=2,9=2,10=2,28=1/1;
 7/8=1,10=1,25=1/1,2,3,16;
 1/10=4,30=1/3;
 99//99;
 -------------
 01_02_path2_6
 -------------
 Symbolic Z-matrix:
 Charge =  0 Multiplicity = 1
 C                    -1.3576   -1.15526   0.67399 
 C                    -0.69979  -0.1147    1.35309 
 C                    -0.72227   1.06773   0.50669 
 C                     0.72225   1.06768  -0.50678 
 C                     0.69977  -0.11484  -1.35307 
 C                    -1.89769  -0.68725  -0.50128 
 C                     1.35762  -1.15532  -0.67387 
 C                     1.89773  -0.68717   0.50134 
 C                     1.8705    0.81549   0.47902 
 C                    -1.87051   0.81542  -0.47911 
 H                    -1.36181  -2.19027   0.99223 
 H                    -0.25645  -0.17799   2.33491 
 H                    -0.68954   2.03843   0.99688 
 H                     0.68949   2.03833  -0.99708 
 H                     0.25644  -0.17822  -2.33488 
 H                    -2.43082  -1.27659  -1.23468 
 H                     1.36185  -2.19035  -0.99201 
 H                     2.43089  -1.27643   1.23479 
 H                     2.80877   1.19987   0.05299 
 H                     1.73097   1.2892    1.45242 
 H                    -2.8088    1.1998   -0.05311 
 H                    -1.73099   1.28904  -1.45255 
 

 GradGradGradGradGradGradGradGradGradGradGradGradGradGradGradGradGradGrad
 Berny optimization.
 Initialization pass.
 Trust Radius=3.00D-01 FncErr=1.00D-07 GrdErr=1.00D-07 EigMax=2.50D+02 EigMin=1.00D-04
 Number of steps in this run=      2 maximum allowed number of steps=      2.
 GradGradGradGradGradGradGradGradGradGradGradGradGradGradGradGradGradGrad

                          Input orientation:                          
 ---------------------------------------------------------------------
 Center     Atomic      Atomic             Coordinates (Angstroms)
 Number     Number       Type             X           Y           Z
 ---------------------------------------------------------------------
      1          6           0       -1.357601   -1.155264    0.673985
      2          6           0       -0.699787   -0.114700    1.353092
      3          6           0       -0.722272    1.067729    0.506685
      4          6           0        0.722245    1.067683   -0.506784
      5          6           0        0.699766   -0.114835   -1.353069
      6          6           0       -1.897689   -0.687252   -0.501283
      7          6           0        1.357622   -1.155316   -0.673868
      8          6           0        1.897727   -0.687174    0.501337
      9          6           0        1.870501    0.815491    0.479019
     10          6           0       -1.870512    0.815416   -0.479105
     11          1           0       -1.361813   -2.190268    0.992231
     12          1           0       -0.256453   -0.177985    2.334909
     13          1           0       -0.689536    2.038432    0.996880
     14          1           0        0.689492    2.038333   -0.997082
     15          1           0        0.256438   -0.178222   -2.334882
     16          1           0       -2.430824   -1.276590   -1.234682
     17          1           0        1.361853   -2.190352   -0.992011
     18          1           0        2.430887   -1.276426    1.234786
     19          1           0        2.808769    1.199869    0.052986
     20          1           0        1.730972    1.289204    1.452418
     21          1           0       -2.808795    1.199804   -0.053114
     22          1           0       -1.730988    1.289044   -1.452546
 ---------------------------------------------------------------------
                    Distance matrix (angstroms):
                    1          2          3          4          5
     1  C    0.000000
     2  C    1.405944   0.000000
     3  C    2.318044   1.454321   0.000000
     4  C    3.265190   2.622850   1.764582   0.000000
     5  C    3.069886   3.046647   2.622849   1.454322   0.000000
     6  C    1.375495   2.280678   2.340419   3.153392   2.792843
     7  C    3.031360   3.069915   3.265210   2.318048   1.405948
     8  C    3.293338   2.792900   3.153428   2.340425   2.280681
     9  C    3.787153   2.869780   2.605161   1.534243   2.364883
    10  C    2.340144   2.364880   1.534242   2.605148   2.869758
    11  H    1.082835   2.208276   3.355490   4.147841   3.749395
    12  H    2.219520   1.079127   2.260795   3.253422   3.810449
    13  H    3.278760   2.182423   1.087946   2.279580   3.476921
    14  H    4.145132   3.476919   2.279576   1.087946   2.182422
    15  H    3.551480   3.810453   3.253424   2.260796   1.079127
    16  H    2.193066   3.323109   3.383392   3.995910   3.341300
    17  H    3.352966   3.749426   4.147862   3.355493   2.208278
    18  H    3.831686   3.341365   3.995949   3.383396   3.323111
    19  H    4.826068   3.965896   3.562521   2.164347   2.855404
    20  H    4.015055   2.808808   2.638535   2.214740   3.302343
    21  H    2.860242   2.855390   2.164347   3.562515   3.965874
    22  H    3.261318   3.302344   2.214740   2.638526   2.808796
                    6          7          8          9         10
     6  C    0.000000
     7  C    3.293314   0.000000
     8  C    3.925612   1.375492   0.000000
     9  C    4.173546   2.340144   1.503077   0.000000
    10  C    1.503077   3.787158   4.173568   3.861759   0.000000
    11  H    2.185590   3.352960   3.622826   4.443628   3.384928
    12  H    3.316172   3.551500   2.874326   2.992533   3.392743
    13  H    3.336687   4.145152   3.790570   2.884017   2.251445
    14  H    3.790532   3.278759   3.336687   2.251444   2.883998
    15  H    2.874276   2.219524   3.316172   3.392743   2.992514
    16  H    1.081400   3.831650   4.700801   5.080844   2.293760
    17  H    3.622808   1.082835   2.185588   3.384929   4.443636
    18  H    4.700812   2.193063   1.081400   2.293760   5.080872
    19  H    5.100901   2.860252   2.142883   1.099817   4.725103
    20  H    4.570613   3.261313   2.199644   1.091503   4.114115
    21  H    2.142884   4.826070   5.100927   4.725111   1.099817
    22  H    2.199645   4.015065   4.570631   4.114112   1.091503
                   11         12         13         14         15
    11  H    0.000000
    12  H    2.659678   0.000000
    13  H    4.281808   2.624955   0.000000
    14  H    5.103556   4.112060   2.424377   0.000000
    15  H    4.211502   4.697872   4.112063   2.624950   0.000000
    16  H    2.633768   4.321667   4.359051   4.558677   3.104550
    17  H    3.369803   4.211524   5.103577   4.281807   2.659683
    18  H    3.908774   3.104616   4.558719   4.359050   4.321668
    19  H    5.456094   4.062172   3.719175   2.509382   3.757052
    20  H    4.678014   2.623222   2.574435   2.765127   4.321022
    21  H    3.831330   3.757048   2.509391   3.719169   4.062151
    22  H    4.268353   4.321023   2.765121   2.574414   2.623213
                   16         17         18         19         20
    16  H    0.000000
    17  H    3.908740   0.000000
    18  H    5.452936   2.633765   0.000000
    19  H    5.936689   3.831342   2.769744   0.000000
    20  H    5.578920   4.268348   2.668277   1.768626   0.000000
    21  H    2.769746   5.456097   5.936722   5.618566   4.783733
    22  H    2.668279   4.678029   5.578942   4.783720   4.519290
                   21         22
    21  H    0.000000
    22  H    1.768627   0.000000
 Stoichiometry    C10H12
 Framework group  C1[X(C10H12)]
 Deg. of freedom    60
 Full point group                 C1      NOp   1
 Largest Abelian subgroup         C1      NOp   1
 Largest concise Abelian subgroup C1      NOp   1
                         Standard orientation:                         
 ---------------------------------------------------------------------
 Center     Atomic      Atomic             Coordinates (Angstroms)
 Number     Number       Type             X           Y           Z
 ---------------------------------------------------------------------
      1          6           0        1.347353    1.167440    0.694219
      2          6           0        0.679431    0.126900    1.363424
      3          6           0        0.714594   -1.055556    0.517486
      4          6           0       -0.714573   -1.055536   -0.517517
      5          6           0       -0.679410    0.126955   -1.363407
      6          6           0        1.904991    0.699390   -0.472809
      7          6           0       -1.347367    1.167459   -0.694173
      8          6           0       -1.905024    0.699356    0.472820
      9          6           0       -1.877473   -0.803310    0.450959
     10          6           0        1.877479   -0.803277   -0.450994
     11          1           0        1.346799    2.202454    1.012460
     12          1           0        0.221434    0.190217    2.338485
     13          1           0        0.674512   -2.026243    1.007165
     14          1           0       -0.674480   -2.026202   -1.007239
     15          1           0       -0.221418    0.190310   -2.338468
     16          1           0        2.449059    1.288704   -1.198154
     17          1           0       -1.346825    2.202486   -1.012376
     18          1           0       -2.449114    1.288632    1.198179
     19          1           0       -2.809252   -1.187698    0.010925
     20          1           0       -1.752548   -1.276993    1.426355
     21          1           0        2.809271   -1.187655   -0.010978
     22          1           0        1.752557   -1.276935   -1.426402
 ---------------------------------------------------------------------
 Rotational constants (GHZ):           2.4129257           1.3569413           1.2882882
 Standard basis: 6-311G(d,p) (5D, 7F)
 There are   262 symmetry adapted cartesian basis functions of A   symmetry.
 There are   252 symmetry adapted basis functions of A   symmetry.
   252 basis functions,   416 primitive gaussians,   262 cartesian basis functions
    36 alpha electrons       36 beta electrons
       nuclear repulsion energy       524.3195321132 Hartrees.
 NAtoms=   22 NActive=   22 NUniq=   22 SFac= 1.00D+00 NAtFMM=   60 NAOKFM=F Big=F
 Integral buffers will be    131072 words long.
 Raffenetti 2 integral format.
 Two-electron integral symmetry is turned on.
 Nuclear repulsion after empirical dispersion term =      524.2737558316 Hartrees.
 Force inversion solution in PCM.
 ------------------------------------------------------------------------------
 Polarizable Continuum Model (PCM)
 =================================
 Model                : PCM.
 Atomic radii         : UFF (Universal Force Field).
 Polarization charges : Total charges.
 Charge compensation  : None.
 Solution method      : Matrix inversion.
 Cavity type          : Scaled VdW (van der Waals Surface) (Alpha=1.100).
 Cavity algorithm     : GePol (No added spheres)
                        Default sphere list used, NSphG=   22.
                        Lebedev-Laikov grids with approx.  5.0 points / Ang**2.
                        Smoothing algorithm: York/Karplus (Gamma=1.0000).
                        Polarization charges: spherical gaussians, with
                                              point-specific exponents (IZeta= 3).
                        Self-potential: point-specific (ISelfS= 7).
                        Self-field    : sphere-specific E.n sum rule (ISelfD= 2).
 1st derivatives      : Analytical E(r).r(x)/FMM algorithm (CHGder, D1EAlg=3).
                        Cavity 1st derivative terms included.
 2nd derivatives      : Analytical E(r).r(xy)/FMM algorithm (CHGder, D2EAlg=3).
                        Cavity 2nd derivative terms included.
 Solvent              : Cis-Decalin, Eps=   2.213900 Eps(inf)=   2.193361
 ------------------------------------------------------------------------------
 One-electron integrals computed using PRISM.
 NBasis=   252 RedAO= T EigKep=  5.13D-04  NBF=   252
 NBsUse=   252 1.00D-06 EigRej= -1.00D+00 NBFU=   252
 ExpMin= 1.03D-01 ExpMax= 4.56D+03 ExpMxC= 6.82D+02 IAcc=3 IRadAn=         5 AccDes= 0.00D+00
 Harris functional with IExCor=  402 and IRadAn=       5 diagonalized for initial guess.
 HarFok:  IExCor=  402 AccDes= 0.00D+00 IRadAn=         5 IDoV= 1 UseB2=F ITyADJ=14
 ICtDFT=  3500011 ScaDFX=  1.000000  1.000000  1.000000  1.000000
 FoFCou: FMM=F IPFlag=           0 FMFlag=      100000 FMFlg1=           0
         NFxFlg=           0 DoJE=T BraDBF=F KetDBF=T FulRan=T
         wScrn=  0.000000 ICntrl=       500 IOpCl=  0 I1Cent=   200000004 NGrid=           0
         NMat0=    1 NMatS0=      1 NMatT0=    0 NMatD0=    1 NMtDS0=    0 NMtDT0=    0
 Petite list used in FoFCou.
 Requested convergence on RMS density matrix=1.00D-08 within 128 cycles.
 Requested convergence on MAX density matrix=1.00D-06.
 Requested convergence on             energy=1.00D-06.
 No special actions if energy rises.
 Inv3:  Mode=1 IEnd=     7226112.
 Iteration    1 A*A^-1 deviation from unit magnitude is 3.89D-15 for   1545.
 Iteration    1 A*A^-1 deviation from orthogonality  is 2.18D-15 for   1536   1036.
 Iteration    1 A^-1*A deviation from unit magnitude is 4.11D-15 for   1545.
 Iteration    1 A^-1*A deviation from orthogonality  is 1.10D-15 for   1232    209.
 Error on total polarization charges =  0.00616
 SCF Done:  E(RB3LYP) =  -388.321275449     A.U. after   11 cycles
            NFock= 11  Conv=0.92D-08     -V/T= 2.0049
 DoSCS=F DFT=T ScalE2(SS,OS)=  1.000000  1.000000
 Range of M.O.s used for correlation:     1   252
 NBasis=   252 NAE=    36 NBE=    36 NFC=     0 NFV=     0
 NROrb=    252 NOA=    36 NOB=    36 NVA=   216 NVB=   216
 Symmetrizing basis deriv contribution to polar:
 IMax=3 JMax=2 DiffMx= 0.00D+00
 G2DrvN: will do    23 centers at a time, making    1 passes.
 Calling FoFCou, ICntrl=  3107 FMM=F I1Cent=   0 AccDes= 0.00D+00.
 NEqPCM:  Using equilibrium solvation (IEInf=0, Eps=   2.2139, EpsInf=   2.1934)
 G2PCM: DoFxE=T DoFxN=T DoGrad=T DoDP/DQ/DG/TGxP=FFFF NFrqRd=   0 IEInf=0 SqF1=F DoCFld=F IF1Alg=4.
 End of G2Drv F.D. properties file   721 does not exist.
 End of G2Drv F.D. properties file   722 does not exist.
 End of G2Drv F.D. properties file   788 does not exist.
          IDoAtm=1111111111111111111111
 NEqPCM:  Using equilibrium solvation (IEInf=0, Eps=   2.2139, EpsInf=   2.1934)
          Differentiating once with respect to electric field.
                with respect to dipole field.
          Differentiating once with respect to nuclear coordinates.
 Keep R1 ints in memory in canonical form, NReq=612588626.
          There are    69 degrees of freedom in the 1st order CPHF.  IDoFFX=6 NUNeed=     3.
     66 vectors produced by pass  0 Test12= 1.13D-14 1.45D-09 XBig12= 4.00D+02 1.82D+01.
 AX will form    66 AO Fock derivatives at one time.
     66 vectors produced by pass  1 Test12= 1.13D-14 1.45D-09 XBig12= 8.02D+01 1.43D+00.
     66 vectors produced by pass  2 Test12= 1.13D-14 1.45D-09 XBig12= 7.35D-01 1.18D-01.
     66 vectors produced by pass  3 Test12= 1.13D-14 1.45D-09 XBig12= 1.51D-03 5.35D-03.
     66 vectors produced by pass  4 Test12= 1.13D-14 1.45D-09 XBig12= 2.25D-06 2.33D-04.
     48 vectors produced by pass  5 Test12= 1.13D-14 1.45D-09 XBig12= 2.48D-09 6.77D-06.
      7 vectors produced by pass  6 Test12= 1.13D-14 1.45D-09 XBig12= 2.79D-12 2.14D-07.
      3 vectors produced by pass  7 Test12= 1.13D-14 1.45D-09 XBig12= 3.07D-15 5.76D-09.
 InvSVY:  IOpt=1 It=  1 EMax= 2.49D-14
 Solved reduced A of dimension   388 with    69 vectors.
 Isotropic polarizability for W=    0.000000      136.07 Bohr**3.
 End of Minotr F.D. properties file   721 does not exist.
 End of Minotr F.D. properties file   722 does not exist.
 End of Minotr F.D. properties file   788 does not exist.

 **********************************************************************

            Population analysis using the SCF density.

 **********************************************************************

 Orbital symmetries:
       Occupied  (A) (A) (A) (A) (A) (A) (A) (A) (A) (A) (A) (A)
                 (A) (A) (A) (A) (A) (A) (A) (A) (A) (A) (A) (A)
                 (A) (A) (A) (A) (A) (A) (A) (A) (A) (A) (A) (A)
       Virtual   (A) (A) (A) (A) (A) (A) (A) (A) (A) (A) (A) (A)
                 (A) (A) (A) (A) (A) (A) (A) (A) (A) (A) (A) (A)
                 (A) (A) (A) (A) (A) (A) (A) (A) (A) (A) (A) (A)
                 (A) (A) (A) (A) (A) (A) (A) (A) (A) (A) (A) (A)
                 (A) (A) (A) (A) (A) (A) (A) (A) (A) (A) (A) (A)
                 (A) (A) (A) (A) (A) (A) (A) (A) (A) (A) (A) (A)
                 (A) (A) (A) (A) (A) (A) (A) (A) (A) (A) (A) (A)
                 (A) (A) (A) (A) (A) (A) (A) (A) (A) (A) (A) (A)
                 (A) (A) (A) (A) (A) (A) (A) (A) (A) (A) (A) (A)
                 (A) (A) (A) (A) (A) (A) (A) (A) (A) (A) (A) (A)
                 (A) (A) (A) (A) (A) (A) (A) (A) (A) (A) (A) (A)
                 (A) (A) (A) (A) (A) (A) (A) (A) (A) (A) (A) (A)
                 (A) (A) (A) (A) (A) (A) (A) (A) (A) (A) (A) (A)
                 (A) (A) (A) (A) (A) (A) (A) (A) (A) (A) (A) (A)
                 (A) (A) (A) (A) (A) (A) (A) (A) (A) (A) (A) (A)
                 (A) (A) (A) (A) (A) (A) (A) (A) (A) (A) (A) (A)
                 (A) (A) (A) (A) (A) (A) (A) (A) (A) (A) (A) (A)
                 (A) (A) (A) (A) (A) (A) (A) (A) (A) (A) (A) (A)
 The electronic state is 1-A.
 Alpha  occ. eigenvalues --  -10.18136 -10.18131 -10.16821 -10.16821 -10.16706
 Alpha  occ. eigenvalues --  -10.16705 -10.16263 -10.16261 -10.16100 -10.16099
 Alpha  occ. eigenvalues --   -0.87163  -0.83601  -0.72561  -0.70714  -0.68999
 Alpha  occ. eigenvalues --   -0.67739  -0.56672  -0.55016  -0.53170  -0.51505
 Alpha  occ. eigenvalues --   -0.51449  -0.49715  -0.45737  -0.42323  -0.39021
 Alpha  occ. eigenvalues --   -0.37951  -0.37653  -0.36978  -0.36481  -0.35706
 Alpha  occ. eigenvalues --   -0.35263  -0.33531  -0.32094  -0.28592  -0.25628
 Alpha  occ. eigenvalues --   -0.17601
 Alpha virt. eigenvalues --   -0.04796   0.02538   0.04657   0.04810   0.07446
 Alpha virt. eigenvalues --    0.07704   0.07772   0.09659   0.09750   0.10721
 Alpha virt. eigenvalues --    0.11033   0.12877   0.13798   0.14686   0.15154
 Alpha virt. eigenvalues --    0.18677   0.19451   0.20064   0.21638   0.22197
 Alpha virt. eigenvalues --    0.25791   0.27721   0.30435   0.31103   0.31796
 Alpha virt. eigenvalues --    0.32966   0.35307   0.36960   0.37698   0.37863
 Alpha virt. eigenvalues --    0.39102   0.40613   0.41996   0.42456   0.43183
 Alpha virt. eigenvalues --    0.44104   0.45394   0.45902   0.46832   0.50061
 Alpha virt. eigenvalues --    0.50900   0.51982   0.54906   0.54951   0.55646
 Alpha virt. eigenvalues --    0.56318   0.58632   0.59007   0.59507   0.59612
 Alpha virt. eigenvalues --    0.60651   0.60743   0.62023   0.63701   0.64042
 Alpha virt. eigenvalues --    0.64216   0.65767   0.66278   0.66945   0.68728
 Alpha virt. eigenvalues --    0.70229   0.70782   0.72305   0.75068   0.75130
 Alpha virt. eigenvalues --    0.77282   0.81344   0.81573   0.85513   0.86447
 Alpha virt. eigenvalues --    0.88336   0.90553   0.92332   0.97153   0.99691
 Alpha virt. eigenvalues --    1.05198   1.05750   1.07864   1.11409   1.14297
 Alpha virt. eigenvalues --    1.16509   1.20622   1.20850   1.22594   1.23262
 Alpha virt. eigenvalues --    1.26961   1.35026   1.37350   1.38753   1.42978
 Alpha virt. eigenvalues --    1.45789   1.48748   1.49740   1.49978   1.50228
 Alpha virt. eigenvalues --    1.52162   1.52972   1.54130   1.55609   1.57404
 Alpha virt. eigenvalues --    1.58150   1.59583   1.59849   1.60377   1.61649
 Alpha virt. eigenvalues --    1.64237   1.65735   1.67141   1.68227   1.71720
 Alpha virt. eigenvalues --    1.72385   1.73090   1.74549   1.76326   1.76917
 Alpha virt. eigenvalues --    1.77201   1.80923   1.82076   1.82960   1.83048
 Alpha virt. eigenvalues --    1.83917   1.85761   1.85908   1.87930   1.89399
 Alpha virt. eigenvalues --    1.92029   1.93580   1.93585   1.96977   1.97962
 Alpha virt. eigenvalues --    2.01144   2.01221   2.02692   2.06903   2.08070
 Alpha virt. eigenvalues --    2.13280   2.13452   2.16185   2.16222   2.18946
 Alpha virt. eigenvalues --    2.21604   2.21657   2.27152   2.28461   2.32600
 Alpha virt. eigenvalues --    2.35936   2.36716   2.38836   2.41234   2.42433
 Alpha virt. eigenvalues --    2.45391   2.45862   2.47353   2.49047   2.49278
 Alpha virt. eigenvalues --    2.52243   2.60196   2.61265   2.61346   2.62800
 Alpha virt. eigenvalues --    2.66915   2.67075   2.68194   2.68758   2.70888
 Alpha virt. eigenvalues --    2.71126   2.74548   2.75982   2.76157   2.78141
 Alpha virt. eigenvalues --    2.80294   2.84307   2.85656   2.88208   2.90938
 Alpha virt. eigenvalues --    2.92265   2.92613   2.97946   3.01247   3.03342
 Alpha virt. eigenvalues --    3.08031   3.09698   3.11410   3.17429   3.19158
 Alpha virt. eigenvalues --    3.29688   3.31490   3.41430   3.42201   3.42850
 Alpha virt. eigenvalues --    3.45136   3.54643   3.57827   3.69486   3.77474
 Alpha virt. eigenvalues --    3.88849   4.03847   4.04400   4.07424   4.09456
 Alpha virt. eigenvalues --    4.10283   4.14171   4.18829   4.20755   4.47764
 Alpha virt. eigenvalues --    4.49211  23.64076  23.76491  23.87598  23.88673
 Alpha virt. eigenvalues --   23.92720  24.00281  24.02791  24.07098  24.17845
 Alpha virt. eigenvalues --   24.19015
          Condensed to atoms (all electrons):
               1          2          3          4          5          6
     1  C    4.861567   0.483556  -0.076931  -0.008817   0.008501   0.530327
     2  C    0.483556   5.110880   0.431073  -0.069270  -0.069212  -0.097005
     3  C   -0.076931   0.431073   5.175545   0.220906  -0.069270  -0.080787
     4  C   -0.008817  -0.069270   0.220906   5.175545   0.431073  -0.021874
     5  C    0.008501  -0.069212  -0.069270   0.431073   5.110884   0.062701
     6  C    0.530327  -0.097005  -0.080787  -0.021874   0.062701   5.120662
     7  C   -0.019429   0.008502  -0.008816  -0.076930   0.483548  -0.012966
     8  C   -0.012964   0.062693  -0.021871  -0.080787  -0.097003  -0.004554
     9  C    0.000161  -0.014425  -0.052464   0.376041  -0.089151   0.000903
    10  C   -0.086817  -0.089150   0.376040  -0.052465  -0.014426   0.363353
    11  H    0.421989  -0.044268   0.006809  -0.000260   0.000646  -0.045545
    12  H   -0.034966   0.417758  -0.038299  -0.000761   0.000176   0.006658
    13  H    0.007391  -0.036459   0.406688  -0.028958   0.006133   0.007043
    14  H   -0.000362   0.006133  -0.028958   0.406689  -0.036459  -0.000328
    15  H   -0.000631   0.000176  -0.000760  -0.038298   0.417757   0.002105
    16  H   -0.038358   0.008574   0.004990   0.000383  -0.001757   0.416369
    17  H    0.001740   0.000646  -0.000260   0.006809  -0.044269   0.000160
    18  H    0.000187  -0.001757   0.000383   0.004989   0.008574   0.000060
    19  H   -0.000197   0.004257   0.007799  -0.032944   0.001300  -0.000300
    20  H    0.000876  -0.003918  -0.003019  -0.043020   0.008922   0.000091
    21  H   -0.001854   0.001300  -0.032944   0.007799   0.004257  -0.042559
    22  H    0.006157   0.008922  -0.043020  -0.003019  -0.003919  -0.038435
               7          8          9         10         11         12
     1  C   -0.019429  -0.012964   0.000161  -0.086817   0.421989  -0.034966
     2  C    0.008502   0.062693  -0.014425  -0.089150  -0.044268   0.417758
     3  C   -0.008816  -0.021871  -0.052464   0.376040   0.006809  -0.038299
     4  C   -0.076930  -0.080787   0.376041  -0.052465  -0.000260  -0.000761
     5  C    0.483548  -0.097003  -0.089151  -0.014426   0.000646   0.000176
     6  C   -0.012966  -0.004554   0.000903   0.363353  -0.045545   0.006658
     7  C    4.861565   0.530335  -0.086817   0.000161   0.001740  -0.000631
     8  C    0.530335   5.120652   0.363353   0.000903   0.000160   0.002106
     9  C   -0.086817   0.363353   4.902127   0.006511  -0.000070  -0.000118
    10  C    0.000161   0.000903   0.006511   4.902130   0.008156   0.006031
    11  H    0.001740   0.000160  -0.000070   0.008156   0.573079  -0.003402
    12  H   -0.000631   0.002106  -0.000118   0.006031  -0.003402   0.545349
    13  H   -0.000363  -0.000328  -0.003682  -0.028059  -0.000269  -0.003444
    14  H    0.007391   0.007043  -0.028059  -0.003682   0.000043  -0.000145
    15  H   -0.034965   0.006658   0.006031  -0.000118  -0.000049   0.000004
    16  H    0.000187   0.000060   0.000008  -0.036558  -0.004551  -0.000318
    17  H    0.421989  -0.045545   0.008156  -0.000070   0.000048  -0.000049
    18  H   -0.038357   0.416369  -0.036558   0.000008   0.000019   0.000343
    19  H   -0.001855  -0.042558   0.390626  -0.000313  -0.000003   0.000122
    20  H    0.006156  -0.038435   0.409722   0.000497  -0.000009  -0.000355
    21  H   -0.000197  -0.000300  -0.000313   0.390625  -0.000321  -0.000166
    22  H    0.000876   0.000091   0.000497   0.409722  -0.000261  -0.000313
              13         14         15         16         17         18
     1  C    0.007391  -0.000362  -0.000631  -0.038358   0.001740   0.000187
     2  C   -0.036459   0.006133   0.000176   0.008574   0.000646  -0.001757
     3  C    0.406688  -0.028958  -0.000760   0.004990  -0.000260   0.000383
     4  C   -0.028958   0.406689  -0.038298   0.000383   0.006809   0.004989
     5  C    0.006133  -0.036459   0.417757  -0.001757  -0.044269   0.008574
     6  C    0.007043  -0.000328   0.002105   0.416369   0.000160   0.000060
     7  C   -0.000363   0.007391  -0.034965   0.000187   0.421989  -0.038357
     8  C   -0.000328   0.007043   0.006658   0.000060  -0.045545   0.416369
     9  C   -0.003682  -0.028059   0.006031   0.000008   0.008156  -0.036558
    10  C   -0.028059  -0.003682  -0.000118  -0.036558  -0.000070   0.000008
    11  H   -0.000269   0.000043  -0.000049  -0.004551   0.000048   0.000019
    12  H   -0.003444  -0.000145   0.000004  -0.000318  -0.000049   0.000343
    13  H    0.555125  -0.004513  -0.000145  -0.000357   0.000043   0.000028
    14  H   -0.004513   0.555124  -0.003444   0.000028  -0.000269  -0.000357
    15  H   -0.000145  -0.003444   0.545347   0.000343  -0.003401  -0.000318
    16  H   -0.000357   0.000028   0.000343   0.558074   0.000019   0.000000
    17  H    0.000043  -0.000269  -0.003401   0.000019   0.573080  -0.004552
    18  H    0.000028  -0.000357  -0.000318   0.000000  -0.004552   0.558074
    19  H   -0.000388  -0.002945  -0.000166   0.000001  -0.000321   0.000426
    20  H    0.002756  -0.000783  -0.000313  -0.000005  -0.000261  -0.002199
    21  H   -0.002945  -0.000388   0.000122   0.000426  -0.000003   0.000001
    22  H   -0.000783   0.002756  -0.000355  -0.002199  -0.000009  -0.000005
              19         20         21         22
     1  C   -0.000197   0.000876  -0.001854   0.006157
     2  C    0.004257  -0.003918   0.001300   0.008922
     3  C    0.007799  -0.003019  -0.032944  -0.043020
     4  C   -0.032944  -0.043020   0.007799  -0.003019
     5  C    0.001300   0.008922   0.004257  -0.003919
     6  C   -0.000300   0.000091  -0.042559  -0.038435
     7  C   -0.001855   0.006156  -0.000197   0.000876
     8  C   -0.042558  -0.038435  -0.000300   0.000091
     9  C    0.390626   0.409722  -0.000313   0.000497
    10  C   -0.000313   0.000497   0.390625   0.409722
    11  H   -0.000003  -0.000009  -0.000321  -0.000261
    12  H    0.000122  -0.000355  -0.000166  -0.000313
    13  H   -0.000388   0.002756  -0.002945  -0.000783
    14  H   -0.002945  -0.000783  -0.000388   0.002756
    15  H   -0.000166  -0.000313   0.000122  -0.000355
    16  H    0.000001  -0.000005   0.000426  -0.002199
    17  H   -0.000321  -0.000261  -0.000003  -0.000009
    18  H    0.000426  -0.002199   0.000001  -0.000005
    19  H    0.584333  -0.032871  -0.000016  -0.000033
    20  H   -0.032871   0.581624  -0.000033  -0.000026
    21  H   -0.000016  -0.000033   0.584332  -0.032871
    22  H   -0.000033  -0.000026  -0.032871   0.581624
 Mulliken charges:
               1
     1  C   -0.041125
     2  C   -0.119003
     3  C   -0.172833
     4  C   -0.172833
     5  C   -0.119006
     6  C   -0.166081
     7  C   -0.041124
     8  C   -0.166077
     9  C   -0.152479
    10  C   -0.152478
    11  H    0.086320
    12  H    0.104421
    13  H    0.125485
    14  H    0.125486
    15  H    0.104423
    16  H    0.094642
    17  H    0.086320
    18  H    0.094642
    19  H    0.126045
    20  H    0.114604
    21  H    0.126045
    22  H    0.114604
 Sum of Mulliken charges =  -0.00000
 Mulliken charges with hydrogens summed into heavy atoms:
               1
     1  C    0.045196
     2  C   -0.014582
     3  C   -0.047348
     4  C   -0.047347
     5  C   -0.014583
     6  C   -0.071439
     7  C    0.045196
     8  C   -0.071435
     9  C    0.088170
    10  C    0.088171
 APT charges:
               1
     1  C   -0.020074
     2  C   -0.131572
     3  C    0.090605
     4  C    0.090594
     5  C   -0.131558
     6  C   -0.013306
     7  C   -0.020074
     8  C   -0.013313
     9  C    0.030907
    10  C    0.030905
    11  H    0.039954
    12  H    0.048691
    13  H   -0.012141
    14  H   -0.012140
    15  H    0.048687
    16  H    0.010660
    17  H    0.039952
    18  H    0.010665
    19  H   -0.042736
    20  H   -0.000984
    21  H   -0.042737
    22  H   -0.000984
 Sum of APT charges =   0.00000
 APT charges with hydrogens summed into heavy atoms:
               1
     1  C    0.019880
     2  C   -0.082881
     3  C    0.078464
     4  C    0.078453
     5  C   -0.082871
     6  C   -0.002646
     7  C    0.019878
     8  C   -0.002649
     9  C   -0.012814
    10  C   -0.012816
 Electronic spatial extent (au):  <R**2>=           1159.1939
 Charge=             -0.0000 electrons
 Dipole moment (field-independent basis, Debye):
    X=             -0.0000    Y=             -0.4716    Z=             -0.0000  Tot=              0.4716
 Quadrupole moment (field-independent basis, Debye-Ang):
   XX=            -62.5971   YY=            -57.3670   ZZ=            -59.8971
   XY=              0.0000   XZ=             -3.5680   YZ=              0.0000
 Traceless Quadrupole moment (field-independent basis, Debye-Ang):
   XX=             -2.6434   YY=              2.5867   ZZ=              0.0566
   XY=              0.0000   XZ=             -3.5680   YZ=              0.0000
 Octapole moment (field-independent basis, Debye-Ang**2):
  XXX=             -0.0002  YYY=              3.2074  ZZZ=             -0.0001  XYY=              0.0000
  XXY=             -1.1863  XXZ=             -0.0000  XZZ=             -0.0001  YZZ=              0.7447
  YYZ=             -0.0000  XYZ=             -1.2889
 Hexadecapole moment (field-independent basis, Debye-Ang**3):
 XXXX=           -880.3894 YYYY=           -390.7131 ZZZZ=           -344.3770 XXXY=              0.0000
 XXXZ=            -23.9524 YYYX=             -0.0000 YYYZ=              0.0001 ZZZX=            -16.9845
 ZZZY=              0.0001 XXYY=           -206.3691 XXZZ=           -209.1300 YYZZ=           -122.4696
 XXYZ=              0.0003 YYXZ=             -0.2814 ZZXY=              0.0004
 N-N= 5.242737558316D+02 E-N=-1.949055395459D+03  KE= 3.864419235067D+02
  Exact polarizability: 173.068   0.000 116.510  -0.142  -0.000 118.647
 Approx polarizability: 294.312   0.001 165.194  13.361  -0.002 203.069
 D2PCM: PCM CHGder 2nd derivatives, FixD1E=F FixD2E=F DoIter=F DoCFld=F I1PDM=0
 Calling FoFJK, ICntrl=    100127 FMM=F ISym2X=0 I1Cent= 0 IOpClX= 0 NMat=1 NMatS=1 NMatT=0.
 Full mass-weighted force constant matrix:
 Low frequencies ---  -83.2780   -0.0005   -0.0003   -0.0003   13.6289   33.8039
 Low frequencies ---   35.7728   38.2886  164.5116
 ******    1 imaginary frequencies (negative Signs) ****** 
 Diagonal vibrational polarizability:
       10.8006032      22.0524414      11.9023765
 Harmonic frequencies (cm**-1), IR intensities (KM/Mole), Raman scattering
 activities (A**4/AMU), depolarization ratios for plane and unpolarized
 incident light, reduced masses (AMU), force constants (mDyne/A),
 and normal coordinates:
                      1                      2                      3
                      A                      A                      A
 Frequencies --    -83.0751                38.2782               164.4976
 Red. masses --      5.0039                 7.7083                 3.2706
 Frc consts  --      0.0203                 0.0067                 0.0521
 IR Inten    --      2.5098                 1.1115                 0.1189
  Atom  AN      X      Y      Z        X      Y      Z        X      Y      Z
     1   6     0.02   0.06  -0.00    -0.15  -0.02   0.04     0.04   0.04  -0.14
     2   6    -0.21   0.09  -0.11    -0.21   0.04  -0.04    -0.04   0.15  -0.05
     3   6    -0.09   0.07  -0.08    -0.29  -0.03  -0.20    -0.08   0.06   0.04
     4   6    -0.09  -0.07  -0.08     0.29  -0.03   0.20     0.08   0.06  -0.04
     5   6    -0.21  -0.09  -0.11     0.21   0.04   0.04     0.04   0.15   0.05
     6   6     0.25   0.03   0.16    -0.30   0.01  -0.09     0.05  -0.12  -0.07
     7   6     0.02  -0.06  -0.00     0.15  -0.02  -0.04    -0.04   0.04   0.14
     8   6     0.25  -0.03   0.16     0.30   0.01   0.09    -0.05  -0.12   0.07
     9   6     0.01  -0.03   0.03     0.11   0.00   0.03     0.00  -0.11  -0.10
    10   6     0.01   0.03   0.03    -0.11   0.00  -0.03    -0.00  -0.11   0.10
    11   1     0.05   0.06   0.01    -0.06  -0.04   0.08     0.09   0.07  -0.25
    12   1    -0.14   0.06  -0.08    -0.03  -0.07   0.05    -0.02   0.25  -0.05
    13   1    -0.09   0.09  -0.04    -0.01   0.03  -0.02    -0.15   0.11   0.14
    14   1    -0.09  -0.09  -0.04     0.01   0.03   0.02     0.15   0.11  -0.14
    15   1    -0.14  -0.06  -0.08     0.03  -0.07  -0.05     0.02   0.25   0.05
    16   1     0.40   0.00   0.24    -0.35   0.05  -0.09     0.11  -0.22  -0.12
    17   1     0.05  -0.06   0.01     0.06  -0.04  -0.08    -0.09   0.07   0.25
    18   1     0.40  -0.00   0.24     0.35   0.05   0.09    -0.11  -0.22   0.12
    19   1    -0.07   0.14   0.05     0.13   0.11  -0.10     0.04  -0.09  -0.20
    20   1     0.02  -0.15  -0.03    -0.03  -0.05   0.02    -0.04  -0.22  -0.15
    21   1    -0.07  -0.14   0.05    -0.13   0.11   0.10    -0.04  -0.09   0.20
    22   1     0.02   0.15  -0.03     0.03  -0.05  -0.02     0.04  -0.22   0.15
                      4                      5                      6
                      A                      A                      A
 Frequencies --    220.9240               280.2931               368.2574
 Red. masses --      3.7974                 3.0771                 3.6409
 Frc consts  --      0.1092                 0.1424                 0.2909
 IR Inten    --      0.0002                 0.0659                 0.0003
  Atom  AN      X      Y      Z        X      Y      Z        X      Y      Z
     1   6    -0.20   0.04  -0.12     0.15   0.05   0.06    -0.11   0.00  -0.10
     2   6    -0.01  -0.04   0.01     0.05   0.09   0.04    -0.09  -0.02  -0.15
     3   6     0.15  -0.04   0.15    -0.05   0.08   0.03     0.01  -0.04  -0.15
     4   6    -0.15  -0.04  -0.15    -0.05  -0.08   0.03    -0.01  -0.04   0.15
     5   6     0.01  -0.04  -0.01     0.05  -0.09   0.04     0.09  -0.02   0.15
     6   6    -0.13   0.02  -0.06    -0.01   0.06  -0.02     0.15   0.02   0.02
     7   6     0.20   0.04   0.12     0.15  -0.05   0.06     0.11   0.00   0.10
     8   6     0.13   0.02   0.06    -0.01  -0.06  -0.02    -0.15   0.02  -0.02
     9   6    -0.04   0.01  -0.06    -0.15  -0.06  -0.10    -0.12   0.03   0.06
    10   6     0.04   0.01   0.06    -0.15   0.06  -0.10     0.12   0.03  -0.06
    11   1    -0.41   0.07  -0.23     0.34   0.03   0.14    -0.26   0.02  -0.14
    12   1    -0.05   0.01  -0.01     0.15   0.08   0.09    -0.24  -0.01  -0.22
    13   1     0.03  -0.06   0.07     0.02   0.10   0.08     0.14  -0.02  -0.11
    14   1    -0.03  -0.06  -0.07     0.02  -0.10   0.08    -0.14  -0.02   0.11
    15   1     0.05   0.01   0.01     0.15  -0.08   0.09     0.24  -0.01   0.22
    16   1    -0.24   0.02  -0.13    -0.01   0.04  -0.04     0.25   0.05   0.11
    17   1     0.41   0.07   0.23     0.34  -0.03   0.14     0.26   0.02   0.14
    18   1     0.24   0.02   0.13    -0.01  -0.04  -0.04    -0.25   0.05  -0.11
    19   1    -0.11   0.16  -0.05    -0.11   0.04  -0.26    -0.05  -0.04  -0.03
    20   1    -0.05  -0.08  -0.11    -0.32  -0.13  -0.11    -0.22   0.09   0.11
    21   1     0.11   0.16   0.05    -0.11  -0.04  -0.26     0.05  -0.04   0.03
    22   1     0.05  -0.08   0.11    -0.32   0.13  -0.11     0.22   0.09  -0.11
                      7                      8                      9
                      A                      A                      A
 Frequencies --    427.3465               440.0666               577.5791
 Red. masses --      1.9255                 1.9655                 3.0454
 Frc consts  --      0.2072                 0.2243                 0.5986
 IR Inten    --      0.1141                 1.1908                 1.5502
  Atom  AN      X      Y      Z        X      Y      Z        X      Y      Z
     1   6    -0.06   0.01  -0.01     0.09  -0.01   0.05    -0.13   0.05  -0.06
     2   6    -0.08   0.02  -0.00    -0.01   0.01  -0.04     0.17  -0.04   0.11
     3   6     0.01   0.02   0.06    -0.08   0.03  -0.08    -0.12   0.04  -0.06
     4   6    -0.01   0.02  -0.06    -0.08  -0.03  -0.08     0.12   0.04   0.06
     5   6     0.08   0.02   0.00    -0.01  -0.01  -0.04    -0.17  -0.04  -0.11
     6   6     0.03  -0.03   0.05    -0.07   0.02  -0.06     0.07  -0.01   0.07
     7   6     0.06   0.01   0.01     0.09   0.01   0.05     0.13   0.05   0.06
     8   6    -0.03  -0.03  -0.05    -0.07  -0.02  -0.06    -0.07  -0.01  -0.07
     9   6     0.13  -0.02   0.08     0.04  -0.02   0.08     0.04  -0.02  -0.02
    10   6    -0.13  -0.02  -0.08     0.04   0.02   0.08    -0.04  -0.02   0.02
    11   1    -0.09   0.02  -0.06     0.24  -0.04   0.16    -0.31   0.08  -0.17
    12   1    -0.19   0.08  -0.06    -0.06   0.02  -0.06     0.38  -0.10   0.21
    13   1    -0.06   0.01   0.03    -0.11   0.03  -0.07    -0.09   0.01  -0.09
    14   1     0.06   0.01  -0.03    -0.11  -0.03  -0.07     0.09   0.01   0.09
    15   1     0.19   0.08   0.06    -0.06  -0.02  -0.06    -0.38  -0.10  -0.21
    16   1     0.08  -0.04   0.08    -0.06   0.01  -0.06     0.00  -0.02   0.02
    17   1     0.09   0.02   0.06     0.24   0.04   0.16     0.31   0.08   0.17
    18   1    -0.08  -0.04  -0.08    -0.06  -0.01  -0.06    -0.00  -0.02  -0.02
    19   1     0.07  -0.22   0.36    -0.03  -0.22   0.38     0.12  -0.18  -0.06
    20   1     0.41   0.13   0.11     0.32   0.15   0.13     0.04   0.09   0.03
    21   1    -0.07  -0.22  -0.36    -0.03   0.22   0.38    -0.12  -0.18   0.06
    22   1    -0.41   0.13  -0.11     0.32  -0.15   0.13    -0.04   0.09  -0.03
                     10                     11                     12
                      A                      A                      A
 Frequencies --    606.4152               706.2650               711.5224
 Red. masses --      2.0518                 1.2345                 1.2277
 Frc consts  --      0.4446                 0.3628                 0.3662
 IR Inten    --      1.6257                 2.4856                54.6717
  Atom  AN      X      Y      Z        X      Y      Z        X      Y      Z
     1   6    -0.06   0.05  -0.06     0.04   0.01   0.04    -0.04  -0.03  -0.03
     2   6     0.12  -0.03   0.04     0.01   0.01   0.02    -0.02  -0.01   0.00
     3   6    -0.10   0.02  -0.06    -0.01   0.02  -0.02     0.02  -0.01   0.03
     4   6    -0.10  -0.02  -0.06     0.01   0.02   0.02     0.02   0.01   0.03
     5   6     0.12   0.03   0.04    -0.01   0.01  -0.02    -0.02   0.01   0.00
     6   6     0.05   0.02   0.02     0.01  -0.03   0.04    -0.02   0.02  -0.05
     7   6    -0.06  -0.05  -0.06    -0.04   0.01  -0.04    -0.04   0.03  -0.03
     8   6     0.05  -0.02   0.02    -0.01  -0.03  -0.04    -0.02  -0.02  -0.05
     9   6    -0.04  -0.01   0.04    -0.05  -0.03   0.01    -0.03  -0.02  -0.00
    10   6    -0.04   0.01   0.04     0.05  -0.03  -0.01    -0.03   0.02  -0.00
    11   1    -0.12   0.05  -0.08    -0.18   0.06  -0.12     0.20  -0.08   0.13
    12   1     0.53  -0.14   0.24    -0.25   0.06  -0.11     0.12  -0.01   0.06
    13   1    -0.09   0.00  -0.08    -0.02   0.02  -0.01     0.05  -0.03   0.00
    14   1    -0.09  -0.00  -0.08     0.02   0.02   0.01     0.05   0.03   0.00
    15   1     0.53   0.14   0.24     0.25   0.06   0.11     0.12   0.01   0.06
    16   1     0.04  -0.01  -0.01    -0.50   0.05  -0.29     0.53  -0.04   0.31
    17   1    -0.12  -0.05  -0.08     0.18   0.06   0.12     0.20   0.08   0.13
    18   1     0.04   0.01  -0.01     0.50   0.05   0.29     0.53   0.04   0.31
    19   1    -0.12   0.03   0.18    -0.03  -0.13   0.06     0.01  -0.14   0.02
    20   1     0.10  -0.02   0.02     0.00   0.07   0.05     0.01   0.09   0.05
    21   1    -0.12  -0.03   0.18     0.03  -0.13  -0.06     0.01   0.14   0.02
    22   1     0.10   0.02   0.02    -0.00   0.07  -0.05     0.01  -0.09   0.05
                     13                     14                     15
                      A                      A                      A
 Frequencies --    716.3692               740.4144               794.7759
 Red. masses --      1.4560                 1.4934                 3.3242
 Frc consts  --      0.4402                 0.4824                 1.2372
 IR Inten    --     60.8267                 0.1641                 0.0286
  Atom  AN      X      Y      Z        X      Y      Z        X      Y      Z
     1   6     0.01  -0.02   0.00    -0.01   0.03   0.02    -0.05  -0.07   0.01
     2   6    -0.12   0.02  -0.03    -0.08   0.05  -0.03    -0.00   0.04   0.17
     3   6     0.04   0.01   0.01     0.04  -0.01   0.00     0.03   0.15  -0.03
     4   6     0.04  -0.01   0.01    -0.04  -0.01  -0.00    -0.03   0.15   0.03
     5   6    -0.12  -0.02  -0.03     0.08   0.05   0.03     0.00   0.04  -0.17
     6   6    -0.02  -0.02   0.00     0.00  -0.03   0.04    -0.08  -0.07  -0.03
     7   6     0.01   0.02   0.00     0.01   0.03  -0.02     0.05  -0.07  -0.01
     8   6    -0.02   0.02   0.00    -0.00  -0.03  -0.04     0.08  -0.07   0.03
     9   6     0.04   0.02  -0.02    -0.07  -0.04   0.02    -0.14  -0.05   0.10
    10   6     0.04  -0.02  -0.02     0.07  -0.04  -0.02     0.14  -0.05  -0.10
    11   1     0.16  -0.03   0.04     0.07   0.03   0.00     0.10  -0.03  -0.11
    12   1     0.50  -0.24   0.28     0.52  -0.20   0.27    -0.22   0.09   0.06
    13   1     0.05   0.04   0.08     0.10   0.05   0.12    -0.09   0.10  -0.15
    14   1     0.05  -0.04   0.08    -0.10   0.05  -0.12     0.09   0.10   0.15
    15   1     0.50   0.24   0.28    -0.52  -0.20  -0.27     0.22   0.09  -0.06
    16   1    -0.20   0.02  -0.09    -0.13   0.01  -0.03     0.28   0.07   0.35
    17   1     0.16   0.03   0.04    -0.07   0.03  -0.00    -0.10  -0.03   0.11
    18   1    -0.20  -0.02  -0.09     0.13   0.01   0.03    -0.28   0.07  -0.35
    19   1     0.07  -0.02  -0.04    -0.10  -0.11   0.13    -0.17  -0.00   0.13
    20   1     0.02   0.04  -0.00     0.02   0.07   0.06    -0.07  -0.12   0.06
    21   1     0.07   0.02  -0.04     0.10  -0.11  -0.13     0.17  -0.00  -0.13
    22   1     0.02  -0.04  -0.00    -0.02   0.07  -0.06     0.07  -0.12  -0.06
                     16                     17                     18
                      A                      A                      A
 Frequencies --    813.2463               829.5551               838.7759
 Red. masses --      4.0726                 3.7827                 4.8846
 Frc consts  --      1.5869                 1.5337                 2.0247
 IR Inten    --     12.8887                 2.1756                36.2541
  Atom  AN      X      Y      Z        X      Y      Z        X      Y      Z
     1   6     0.07  -0.15  -0.08    -0.01   0.20   0.07    -0.04  -0.16  -0.03
     2   6    -0.07  -0.08   0.00     0.13   0.05  -0.07    -0.05   0.05   0.26
     3   6    -0.04  -0.08   0.12     0.04  -0.10  -0.06    -0.07   0.18  -0.04
     4   6    -0.04   0.08   0.12    -0.04  -0.10   0.06    -0.07  -0.18  -0.04
     5   6    -0.07   0.08   0.00    -0.13   0.05   0.07    -0.05  -0.05   0.26
     6   6     0.14   0.11  -0.10    -0.14  -0.03   0.09     0.04  -0.06  -0.05
     7   6     0.07   0.15  -0.08     0.01   0.20  -0.07    -0.04   0.16  -0.03
     8   6     0.14  -0.11  -0.10     0.14  -0.03  -0.09     0.04   0.06  -0.05
     9   6    -0.07  -0.15   0.06    -0.01  -0.12  -0.00     0.11  -0.04  -0.12
    10   6    -0.07   0.15   0.06     0.01  -0.12   0.00     0.11   0.04  -0.12
    11   1    -0.20  -0.16  -0.04     0.06   0.19   0.08     0.05  -0.08  -0.27
    12   1     0.03   0.12   0.04    -0.21   0.05  -0.23    -0.17   0.20   0.19
    13   1     0.08  -0.17  -0.03     0.09  -0.00   0.14     0.01   0.11  -0.17
    14   1     0.08   0.17  -0.03    -0.09  -0.00  -0.14     0.01  -0.11  -0.17
    15   1     0.03  -0.12   0.04     0.21   0.05   0.23    -0.17  -0.20   0.19
    16   1    -0.23   0.16  -0.33     0.26  -0.20   0.25    -0.02   0.20   0.11
    17   1    -0.20   0.16  -0.04    -0.06   0.19  -0.08     0.05   0.08  -0.27
    18   1    -0.23  -0.16  -0.33    -0.26  -0.20  -0.25    -0.02  -0.20   0.11
    19   1    -0.07  -0.15   0.08    -0.09  -0.05   0.10     0.01   0.02   0.05
    20   1    -0.08  -0.02   0.13    -0.03   0.03   0.07     0.16   0.06  -0.08
    21   1    -0.07   0.15   0.08     0.09  -0.05  -0.10     0.01  -0.02   0.05
    22   1    -0.08   0.02   0.13     0.03   0.03  -0.07     0.16  -0.06  -0.08
                     19                     20                     21
                      A                      A                      A
 Frequencies --    896.3645               927.8159               935.0337
 Red. masses --      2.2970                 2.0593                 1.8693
 Frc consts  --      1.0874                 1.0444                 0.9629
 IR Inten    --     10.7129                16.5423                 0.2540
  Atom  AN      X      Y      Z        X      Y      Z        X      Y      Z
     1   6    -0.01   0.03   0.02    -0.02   0.00  -0.01    -0.00   0.00   0.01
     2   6    -0.02  -0.04  -0.06     0.02   0.00  -0.01     0.02  -0.05  -0.07
     3   6     0.11   0.14  -0.06    -0.10  -0.04   0.05    -0.04   0.05   0.03
     4   6    -0.11   0.14   0.06    -0.10   0.04   0.05     0.04   0.05  -0.03
     5   6     0.02  -0.04   0.06     0.02  -0.00  -0.01    -0.02  -0.05   0.07
     6   6    -0.01  -0.05   0.04    -0.00   0.10  -0.04    -0.00   0.11  -0.05
     7   6     0.01   0.03  -0.02    -0.02  -0.00  -0.01     0.00   0.00  -0.01
     8   6     0.01  -0.05  -0.04    -0.00  -0.10  -0.04     0.00   0.11   0.05
     9   6     0.09  -0.04   0.01     0.12   0.07  -0.01    -0.06  -0.09  -0.02
    10   6    -0.09  -0.04  -0.01     0.12  -0.07  -0.01     0.06  -0.09   0.02
    11   1     0.02   0.03   0.01     0.02  -0.06   0.20    -0.13  -0.06   0.22
    12   1    -0.02  -0.40  -0.05     0.06   0.15   0.00     0.02  -0.13  -0.07
    13   1    -0.05   0.10  -0.18    -0.39   0.02   0.16    -0.44   0.10   0.08
    14   1     0.05   0.10   0.18    -0.39  -0.02   0.16     0.44   0.10  -0.08
    15   1     0.02  -0.40   0.05     0.06  -0.15   0.00    -0.02  -0.13   0.07
    16   1    -0.10  -0.08  -0.05     0.01   0.25   0.08     0.02   0.22   0.05
    17   1    -0.02   0.03  -0.01     0.02   0.06   0.20     0.12  -0.06  -0.22
    18   1     0.10  -0.08   0.05     0.01  -0.25   0.08    -0.02   0.22  -0.05
    19   1     0.21   0.03  -0.30     0.19   0.15  -0.24    -0.08  -0.19   0.13
    20   1    -0.10  -0.25  -0.07    -0.11  -0.04  -0.04     0.19  -0.12  -0.07
    21   1    -0.21   0.03   0.30     0.19  -0.15  -0.24     0.08  -0.19  -0.13
    22   1     0.10  -0.25   0.07    -0.11   0.04  -0.04    -0.19  -0.12   0.07
                     22                     23                     24
                      A                      A                      A
 Frequencies --    950.6646               954.9658               969.0013
 Red. masses --      1.3628                 1.3671                 1.6190
 Frc consts  --      0.7256                 0.7345                 0.8957
 IR Inten    --      1.5469                12.4950                17.8959
  Atom  AN      X      Y      Z        X      Y      Z        X      Y      Z
     1   6    -0.10   0.02  -0.04    -0.10   0.01  -0.04    -0.00  -0.01   0.04
     2   6     0.02   0.00   0.01     0.03  -0.01   0.00     0.01  -0.00  -0.02
     3   6    -0.01  -0.01   0.02     0.01   0.00   0.01     0.03   0.05   0.01
     4   6     0.01  -0.01  -0.02     0.01  -0.00   0.01     0.03  -0.05   0.01
     5   6    -0.02   0.00  -0.01     0.03   0.01   0.00     0.01   0.00  -0.02
     6   6     0.04   0.00   0.02     0.06  -0.00   0.02     0.04   0.07  -0.02
     7   6     0.10   0.02   0.04    -0.10  -0.01  -0.04    -0.00   0.01   0.04
     8   6    -0.04   0.00  -0.02     0.06   0.00   0.02     0.04  -0.07  -0.02
     9   6    -0.00  -0.02   0.03    -0.02   0.01  -0.01    -0.05   0.09  -0.06
    10   6     0.00  -0.02  -0.03    -0.02  -0.01  -0.01    -0.05  -0.09  -0.06
    11   1     0.51  -0.10   0.34     0.48  -0.11   0.35    -0.27  -0.01   0.06
    12   1    -0.09   0.09  -0.05    -0.12   0.06  -0.07    -0.02  -0.12  -0.03
    13   1     0.02   0.02   0.07     0.08   0.01   0.04     0.12   0.12   0.15
    14   1    -0.02   0.02  -0.07     0.08  -0.01   0.04     0.12  -0.12   0.15
    15   1     0.09   0.09   0.05    -0.12  -0.06  -0.07    -0.02   0.12  -0.03
    16   1    -0.22   0.08  -0.10    -0.23   0.04  -0.15    -0.02   0.27   0.09
    17   1    -0.51  -0.10  -0.34     0.48   0.11   0.35    -0.27   0.01   0.06
    18   1     0.22   0.08   0.10    -0.23  -0.04  -0.15    -0.02  -0.27   0.09
    19   1     0.02   0.00  -0.04    -0.06   0.02   0.08    -0.16   0.06   0.22
    20   1    -0.06  -0.06   0.02     0.04   0.05   0.00     0.04   0.41   0.09
    21   1    -0.02   0.00   0.04    -0.06  -0.02   0.08    -0.16  -0.06   0.22
    22   1     0.06  -0.06  -0.02     0.04  -0.05   0.00     0.04  -0.41   0.09
                     25                     26                     27
                      A                      A                      A
 Frequencies --    980.6879               986.1445              1019.7463
 Red. masses --      1.9948                 1.8000                 1.4715
 Frc consts  --      1.1303                 1.0314                 0.9016
 IR Inten    --     29.4949                 0.0770                 0.0377
  Atom  AN      X      Y      Z        X      Y      Z        X      Y      Z
     1   6    -0.01  -0.03  -0.00    -0.01  -0.01  -0.03     0.01   0.01  -0.02
     2   6     0.00  -0.04   0.00     0.01  -0.04  -0.02     0.01  -0.03  -0.04
     3   6     0.04   0.11  -0.07     0.01   0.05  -0.05    -0.05   0.01   0.06
     4   6     0.04  -0.11  -0.07    -0.01   0.05   0.05     0.05   0.01  -0.06
     5   6     0.00   0.04   0.00    -0.01  -0.04   0.02    -0.01  -0.03   0.04
     6   6    -0.01   0.02  -0.06    -0.04  -0.06  -0.01    -0.02  -0.05   0.05
     7   6    -0.01   0.03  -0.00     0.01  -0.01   0.03    -0.01   0.01   0.02
     8   6    -0.01  -0.02  -0.06     0.04  -0.06   0.01     0.02  -0.05  -0.05
     9   6     0.01   0.00   0.14    -0.04   0.07  -0.12    -0.01   0.05   0.07
    10   6     0.01  -0.00   0.14     0.04   0.07   0.12     0.01   0.05  -0.07
    11   1    -0.00  -0.07   0.13     0.23  -0.05   0.09     0.05   0.03  -0.09
    12   1    -0.05  -0.19  -0.02    -0.05  -0.12  -0.05     0.01  -0.12  -0.03
    13   1     0.07   0.10  -0.09    -0.05   0.01  -0.15    -0.47   0.05   0.10
    14   1     0.07  -0.10  -0.09     0.05   0.01   0.15     0.47   0.05  -0.10
    15   1    -0.05   0.19  -0.02     0.05  -0.12   0.05    -0.01  -0.12   0.03
    16   1     0.04  -0.04  -0.07     0.04  -0.27  -0.12    -0.01  -0.13  -0.00
    17   1    -0.00   0.07   0.13    -0.23  -0.05  -0.09    -0.05   0.03   0.09
    18   1     0.04   0.04  -0.07    -0.04  -0.27   0.12     0.01  -0.13   0.00
    19   1     0.01   0.32  -0.15    -0.11  -0.13   0.22    -0.07   0.25   0.01
    20   1    -0.45  -0.04   0.18     0.26   0.34  -0.03    -0.26   0.19   0.17
    21   1     0.01  -0.32  -0.15     0.11  -0.13  -0.22     0.07   0.25  -0.01
    22   1    -0.45   0.04   0.18    -0.26   0.34   0.03     0.26   0.19  -0.17
                     28                     29                     30
                      A                      A                      A
 Frequencies --   1041.0338              1083.5355              1089.2184
 Red. masses --      1.6866                 1.1944                 1.4278
 Frc consts  --      1.0769                 0.8262                 0.9981
 IR Inten    --     27.6009                 7.7555                 0.0643
  Atom  AN      X      Y      Z        X      Y      Z        X      Y      Z
     1   6    -0.02  -0.07   0.01     0.01   0.04  -0.03    -0.03  -0.07   0.03
     2   6     0.05  -0.03  -0.08    -0.01  -0.06   0.03     0.05   0.03  -0.06
     3   6    -0.04   0.07   0.04    -0.02   0.01   0.03     0.02   0.05   0.01
     4   6    -0.04  -0.07   0.04    -0.02  -0.01   0.03    -0.02   0.05  -0.01
     5   6     0.05   0.03  -0.08    -0.01   0.06   0.03    -0.05   0.03   0.06
     6   6    -0.01  -0.06   0.01     0.02   0.01  -0.00    -0.02  -0.04   0.01
     7   6    -0.02   0.07   0.01     0.01  -0.04  -0.03     0.03  -0.07  -0.03
     8   6    -0.01   0.06   0.01     0.02  -0.01  -0.00     0.02  -0.04  -0.01
     9   6     0.02  -0.06  -0.01    -0.00  -0.00  -0.01     0.00   0.02   0.01
    10   6     0.02   0.06  -0.01    -0.00   0.00  -0.01    -0.00   0.02  -0.01
    11   1    -0.15  -0.11   0.12     0.20   0.11  -0.25    -0.31  -0.18   0.36
    12   1     0.02  -0.09  -0.10    -0.21  -0.47  -0.04     0.12   0.30  -0.05
    13   1     0.07   0.28   0.48    -0.17   0.08   0.14     0.11   0.15   0.19
    14   1     0.07  -0.28   0.48    -0.17  -0.08   0.14    -0.11   0.15  -0.19
    15   1     0.02   0.09  -0.10    -0.21   0.47  -0.04    -0.12   0.30   0.05
    16   1     0.02  -0.11   0.00    -0.00   0.03  -0.01     0.02  -0.14  -0.03
    17   1    -0.15   0.11   0.12     0.20  -0.11  -0.25     0.31  -0.18  -0.36
    18   1     0.02   0.11   0.00    -0.00  -0.03  -0.01    -0.02  -0.14   0.03
    19   1    -0.00  -0.04   0.01     0.10  -0.19  -0.07     0.04  -0.01  -0.05
    20   1     0.11  -0.23  -0.11    -0.02   0.08   0.04    -0.06   0.08   0.05
    21   1    -0.00   0.04   0.01     0.10   0.19  -0.07    -0.04  -0.01   0.05
    22   1     0.11   0.23  -0.11    -0.02  -0.08   0.04     0.06   0.08  -0.05
                     31                     32                     33
                      A                      A                      A
 Frequencies --   1102.4778              1109.6615              1117.4680
 Red. masses --      1.1609                 1.2566                 1.3223
 Frc consts  --      0.8314                 0.9117                 0.9729
 IR Inten    --      5.8429                 5.9476                 0.6772
  Atom  AN      X      Y      Z        X      Y      Z        X      Y      Z
     1   6     0.01  -0.04  -0.02     0.02  -0.04  -0.04     0.01  -0.04  -0.03
     2   6     0.03  -0.02  -0.02     0.02  -0.00  -0.04     0.02   0.02  -0.06
     3   6    -0.02   0.03   0.01    -0.00  -0.02  -0.01     0.03  -0.00  -0.01
     4   6     0.02   0.03  -0.01    -0.00   0.02  -0.01    -0.03  -0.00   0.01
     5   6    -0.03  -0.02   0.02     0.02   0.00  -0.04    -0.02   0.02   0.06
     6   6    -0.02  -0.01   0.01    -0.04  -0.01   0.05    -0.04  -0.01   0.06
     7   6    -0.01  -0.04   0.02     0.02   0.04  -0.04    -0.01  -0.04   0.03
     8   6     0.02  -0.01  -0.01    -0.04   0.01   0.05     0.04  -0.01  -0.06
     9   6     0.00   0.02  -0.02    -0.00  -0.01   0.03     0.01   0.01  -0.03
    10   6    -0.00   0.02   0.02    -0.00   0.01   0.03    -0.01   0.01   0.03
    11   1     0.10   0.02  -0.22     0.22   0.03  -0.30     0.12  -0.01  -0.14
    12   1    -0.09  -0.20  -0.08     0.03   0.06  -0.05     0.16   0.31  -0.02
    13   1     0.24   0.22   0.42     0.15   0.00   0.04    -0.15  -0.12  -0.27
    14   1    -0.24   0.22  -0.42     0.15  -0.00   0.04     0.15  -0.12   0.27
    15   1     0.09  -0.20   0.08     0.03  -0.06  -0.05    -0.16   0.31   0.02
    16   1    -0.05   0.23   0.19    -0.14   0.40   0.31    -0.15   0.31   0.26
    17   1    -0.10   0.02   0.22     0.22  -0.03  -0.30    -0.12  -0.01   0.14
    18   1     0.05   0.23  -0.19    -0.14  -0.40   0.31     0.15   0.31  -0.26
    19   1     0.04  -0.06  -0.02    -0.08   0.14   0.05     0.08  -0.10  -0.08
    20   1     0.04   0.06  -0.01    -0.06  -0.07   0.02     0.01   0.08   0.01
    21   1    -0.04  -0.06   0.02    -0.08  -0.14   0.05    -0.08  -0.10   0.08
    22   1    -0.04   0.06   0.01    -0.06   0.07   0.02    -0.01   0.08  -0.01
                     34                     35                     36
                      A                      A                      A
 Frequencies --   1139.2156              1157.4278              1225.6855
 Red. masses --      1.2743                 1.1507                 1.3086
 Frc consts  --      0.9744                 0.9082                 1.1582
 IR Inten    --      8.3838                 1.8601                 0.6045
  Atom  AN      X      Y      Z        X      Y      Z        X      Y      Z
     1   6    -0.01  -0.04  -0.00    -0.01  -0.02   0.00     0.00   0.03   0.01
     2   6     0.03   0.01  -0.03     0.02   0.00  -0.02    -0.00  -0.02   0.01
     3   6     0.02   0.04  -0.03    -0.01   0.01  -0.04    -0.09  -0.03  -0.03
     4   6     0.02  -0.04  -0.03     0.01   0.01   0.04    -0.09   0.03  -0.03
     5   6     0.03  -0.01  -0.03    -0.02   0.00   0.02    -0.00   0.02   0.01
     6   6     0.01  -0.03   0.06     0.03  -0.02   0.05     0.01   0.00   0.00
     7   6    -0.01   0.04  -0.00     0.01  -0.02  -0.00     0.00  -0.03   0.01
     8   6     0.01   0.03   0.06    -0.03  -0.02  -0.05     0.01  -0.00   0.00
     9   6    -0.03  -0.01   0.01     0.02   0.00  -0.02     0.03   0.02   0.00
    10   6    -0.03   0.01   0.01    -0.02   0.00   0.02     0.03  -0.02   0.00
    11   1    -0.06  -0.05   0.02    -0.02  -0.01  -0.04     0.01   0.04  -0.01
    12   1     0.09   0.19  -0.02     0.05   0.06  -0.02    -0.01   0.07   0.01
    13   1    -0.21   0.03  -0.08     0.02   0.02  -0.01     0.59   0.00   0.11
    14   1    -0.21  -0.03  -0.08    -0.02   0.02   0.01     0.59  -0.00   0.11
    15   1     0.09  -0.19  -0.02    -0.05   0.06   0.02    -0.01  -0.07   0.01
    16   1    -0.10   0.07   0.06    -0.08   0.04   0.02     0.03  -0.05  -0.03
    17   1    -0.06   0.05   0.02     0.02  -0.01   0.04     0.01  -0.04  -0.01
    18   1    -0.10  -0.07   0.06     0.08   0.04  -0.02     0.03   0.05  -0.03
    19   1     0.23  -0.41  -0.18    -0.28   0.44   0.24     0.17  -0.13  -0.17
    20   1    -0.16   0.24   0.15     0.19  -0.28  -0.18    -0.09   0.16   0.08
    21   1     0.23   0.41  -0.18     0.28   0.44  -0.24     0.17   0.13  -0.17
    22   1    -0.16  -0.24   0.15    -0.19  -0.28   0.18    -0.09  -0.16   0.08
                     37                     38                     39
                      A                      A                      A
 Frequencies --   1273.9485              1274.0393              1298.0134
 Red. masses --      2.1008                 2.0240                 1.3447
 Frc consts  --      2.0088                 1.9356                 1.3349
 IR Inten    --      2.5992                 7.0716                 0.6746
  Atom  AN      X      Y      Z        X      Y      Z        X      Y      Z
     1   6    -0.00  -0.05  -0.02     0.01  -0.04  -0.02    -0.02  -0.02   0.03
     2   6    -0.01   0.04   0.05    -0.01   0.03   0.05    -0.01  -0.03   0.02
     3   6     0.07  -0.00  -0.08     0.04  -0.01  -0.07     0.04  -0.04  -0.07
     4   6    -0.07  -0.00   0.08     0.04   0.01  -0.07     0.04   0.04  -0.07
     5   6     0.01   0.04  -0.05    -0.01  -0.03   0.05    -0.01   0.03   0.02
     6   6     0.02   0.06  -0.02     0.02   0.06  -0.02    -0.00   0.05   0.02
     7   6     0.00  -0.05   0.02     0.01   0.04  -0.02    -0.02   0.02   0.03
     8   6    -0.02   0.06   0.02     0.02  -0.07  -0.02    -0.00  -0.05   0.02
     9   6     0.09  -0.11  -0.08    -0.09   0.12   0.08     0.00  -0.03  -0.01
    10   6    -0.09  -0.11   0.08    -0.09  -0.12   0.08     0.00   0.03  -0.01
    11   1     0.00  -0.05  -0.02    -0.00  -0.04  -0.02     0.15   0.07  -0.26
    12   1    -0.03  -0.01   0.04    -0.03   0.04   0.05     0.07   0.28   0.04
    13   1    -0.12   0.11   0.13     0.06   0.12   0.19    -0.14   0.17   0.35
    14   1     0.12   0.11  -0.12     0.06  -0.12   0.19    -0.14  -0.17   0.35
    15   1     0.03  -0.01  -0.04    -0.03  -0.04   0.05     0.07  -0.28   0.04
    16   1    -0.01   0.09  -0.03     0.01   0.08  -0.02     0.07  -0.21  -0.15
    17   1    -0.00  -0.05   0.02     0.00   0.04  -0.02     0.15  -0.07  -0.26
    18   1     0.01   0.09   0.03     0.00  -0.08  -0.02     0.07   0.21  -0.15
    19   1    -0.15   0.25   0.12     0.16  -0.25  -0.14    -0.09   0.11   0.06
    20   1    -0.27   0.41   0.22     0.27  -0.40  -0.23    -0.09   0.14   0.08
    21   1     0.15   0.25  -0.13     0.16   0.25  -0.14    -0.09  -0.11   0.06
    22   1     0.27   0.41  -0.22     0.27   0.39  -0.22    -0.09  -0.14   0.08
                     40                     41                     42
                      A                      A                      A
 Frequencies --   1301.1249              1357.1864              1371.6416
 Red. masses --      1.3528                 2.1844                 2.7883
 Frc consts  --      1.3493                 2.3706                 3.0908
 IR Inten    --      0.1096                 4.1795                 7.8786
  Atom  AN      X      Y      Z        X      Y      Z        X      Y      Z
     1   6    -0.02  -0.02   0.03    -0.02  -0.02   0.01     0.02  -0.00  -0.02
     2   6    -0.01  -0.04   0.01     0.03   0.13   0.03    -0.02  -0.15  -0.06
     3   6     0.05  -0.02  -0.07     0.06  -0.10  -0.06    -0.01   0.15   0.10
     4   6    -0.05  -0.02   0.07    -0.06  -0.10   0.06    -0.01  -0.15   0.10
     5   6     0.01  -0.04  -0.01    -0.03   0.13  -0.03    -0.02   0.15  -0.06
     6   6    -0.01   0.05   0.02     0.03  -0.07  -0.05    -0.05   0.09   0.07
     7   6     0.02  -0.02  -0.03     0.02  -0.02  -0.01     0.02   0.00  -0.02
     8   6     0.01   0.05  -0.02    -0.03  -0.07   0.05    -0.05  -0.09   0.07
     9   6    -0.01   0.03   0.01     0.01   0.09  -0.01     0.01   0.09  -0.02
    10   6     0.01   0.03  -0.01    -0.01   0.09   0.01     0.01  -0.09  -0.02
    11   1     0.15   0.07  -0.26    -0.12  -0.07   0.17     0.15   0.04  -0.20
    12   1     0.08   0.29   0.04    -0.09  -0.31   0.00     0.09   0.28  -0.05
    13   1    -0.24   0.16   0.28    -0.42   0.01   0.14     0.10  -0.06  -0.34
    14   1     0.24   0.16  -0.28     0.42   0.01  -0.14     0.10   0.06  -0.34
    15   1    -0.08   0.29  -0.04     0.09  -0.31  -0.00     0.09  -0.28  -0.05
    16   1     0.06  -0.22  -0.15    -0.05   0.19   0.11     0.06  -0.27  -0.14
    17   1    -0.15   0.07   0.26     0.12  -0.07  -0.17     0.15  -0.04  -0.20
    18   1    -0.06  -0.22   0.15     0.05   0.19  -0.11     0.06   0.27  -0.14
    19   1     0.09  -0.10  -0.07     0.09  -0.10  -0.02     0.03  -0.03   0.05
    20   1     0.10  -0.14  -0.08     0.10  -0.11  -0.12     0.12  -0.10  -0.13
    21   1    -0.09  -0.10   0.07    -0.09  -0.10   0.02     0.03   0.03   0.05
    22   1    -0.10  -0.14   0.08    -0.10  -0.11   0.12     0.12   0.10  -0.13
                     43                     44                     45
                      A                      A                      A
 Frequencies --   1442.4659              1447.6807              1474.0675
 Red. masses --      2.6617                 2.2827                 1.1474
 Frc consts  --      3.2630                 2.8187                 1.4689
 IR Inten    --      9.4851                 3.8953                 7.8024
  Atom  AN      X      Y      Z        X      Y      Z        X      Y      Z
     1   6     0.10   0.11  -0.13    -0.07  -0.12   0.08     0.01   0.02  -0.00
     2   6    -0.07  -0.14   0.07     0.07   0.12  -0.06    -0.01  -0.03   0.00
     3   6     0.04   0.01  -0.04    -0.02  -0.00   0.05     0.01   0.02   0.00
     4   6     0.04  -0.01  -0.04     0.02  -0.00  -0.05     0.01  -0.02   0.00
     5   6    -0.07   0.14   0.07    -0.07   0.12   0.06    -0.01   0.03   0.00
     6   6    -0.03  -0.06   0.02    -0.00   0.08   0.01    -0.00  -0.02  -0.01
     7   6     0.10  -0.11  -0.13     0.07  -0.12  -0.08     0.01  -0.02  -0.00
     8   6    -0.03   0.06   0.02     0.00   0.08  -0.01    -0.00   0.02  -0.01
     9   6     0.01  -0.01  -0.01     0.01  -0.00  -0.01    -0.04  -0.04   0.03
    10   6     0.01   0.01  -0.01    -0.01  -0.00   0.01    -0.04   0.04   0.03
    11   1    -0.19  -0.02   0.35     0.15  -0.02  -0.28    -0.00   0.02   0.02
    12   1    -0.02   0.26   0.09    -0.02  -0.25  -0.10     0.01   0.06   0.00
    13   1    -0.07   0.14   0.21     0.07  -0.13  -0.21    -0.03   0.02   0.01
    14   1    -0.07  -0.14   0.21    -0.07  -0.13   0.21    -0.03  -0.02   0.01
    15   1    -0.02  -0.26   0.09     0.02  -0.25   0.10     0.01  -0.06   0.00
    16   1    -0.06   0.16   0.18     0.08  -0.22  -0.17    -0.02   0.05   0.03
    17   1    -0.19   0.02   0.35    -0.15  -0.02   0.28    -0.00  -0.02   0.02
    18   1    -0.06  -0.16   0.18    -0.08  -0.22   0.17    -0.02  -0.05   0.03
    19   1    -0.07  -0.05   0.17    -0.04  -0.14   0.19     0.05   0.27  -0.39
    20   1    -0.13  -0.05  -0.01    -0.21  -0.11  -0.02     0.45   0.21   0.07
    21   1    -0.07   0.05   0.17     0.04  -0.14  -0.19     0.05  -0.27  -0.39
    22   1    -0.13   0.05  -0.01     0.21  -0.11   0.02     0.45  -0.21   0.07
                     46                     47                     48
                      A                      A                      A
 Frequencies --   1474.6797              1503.1239              1526.8016
 Red. masses --      1.1950                 3.3185                 3.8339
 Frc consts  --      1.5312                 4.4175                 5.2656
 IR Inten    --      2.8316                 7.7883                 0.8121
  Atom  AN      X      Y      Z        X      Y      Z        X      Y      Z
     1   6     0.01   0.03   0.00    -0.08   0.09   0.17     0.11  -0.06  -0.22
     2   6    -0.02  -0.04   0.00    -0.02  -0.10  -0.04    -0.02   0.05   0.05
     3   6     0.00   0.01  -0.01     0.01   0.03   0.02     0.00  -0.02  -0.03
     4   6    -0.00   0.01   0.01     0.01  -0.03   0.02    -0.00  -0.02   0.03
     5   6     0.02  -0.04  -0.00    -0.02   0.10  -0.04     0.02   0.05  -0.05
     6   6     0.00  -0.03  -0.02     0.09  -0.11  -0.16    -0.09   0.11   0.19
     7   6    -0.01   0.03  -0.00    -0.08  -0.09   0.17    -0.11  -0.06   0.22
     8   6    -0.00  -0.03   0.02     0.09   0.11  -0.16     0.09   0.11  -0.19
     9   6     0.04   0.04  -0.03    -0.02   0.01   0.02    -0.01   0.01   0.02
    10   6    -0.04   0.04   0.03    -0.02  -0.01   0.02     0.01   0.01  -0.02
    11   1    -0.01   0.03   0.03     0.13   0.22  -0.17    -0.17  -0.22   0.24
    12   1     0.03   0.10   0.02     0.13   0.29   0.01    -0.10  -0.21   0.04
    13   1    -0.00   0.04   0.03    -0.05   0.02  -0.03     0.02   0.00   0.03
    14   1     0.00   0.04  -0.03    -0.05  -0.02  -0.03    -0.02   0.00  -0.03
    15   1    -0.03   0.10  -0.02     0.13  -0.29   0.01     0.10  -0.21  -0.04
    16   1    -0.02   0.07   0.05    -0.02   0.32   0.06    -0.01  -0.28  -0.02
    17   1     0.01   0.03  -0.03     0.13  -0.22  -0.17     0.17  -0.22  -0.24
    18   1     0.02   0.07  -0.05    -0.02  -0.32   0.06     0.01  -0.28   0.02
    19   1    -0.06  -0.26   0.39     0.02  -0.15   0.07     0.03  -0.16   0.08
    20   1    -0.44  -0.21  -0.07    -0.05  -0.23  -0.09    -0.07  -0.24  -0.08
    21   1     0.06  -0.26  -0.40     0.02   0.15   0.07    -0.03  -0.16  -0.08
    22   1     0.44  -0.21   0.07    -0.05   0.23  -0.09     0.07  -0.24   0.08
                     49                     50                     51
                      A                      A                      A
 Frequencies --   2984.4399              2984.6874              3079.0189
 Red. masses --      1.0713                 1.0717                 1.0896
 Frc consts  --      5.6219                 5.6248                 6.0861
 IR Inten    --    129.3024                21.8359                15.1491
  Atom  AN      X      Y      Z        X      Y      Z        X      Y      Z
     1   6     0.00   0.00  -0.00     0.00   0.00  -0.00     0.00  -0.00  -0.00
     2   6    -0.00  -0.00   0.00    -0.00  -0.00   0.00    -0.00  -0.00   0.00
     3   6    -0.00  -0.00   0.00    -0.00  -0.00   0.00     0.00  -0.00   0.00
     4   6    -0.00   0.00   0.00     0.00  -0.00  -0.00    -0.00  -0.00  -0.00
     5   6    -0.00   0.00   0.00     0.00  -0.00  -0.00     0.00  -0.00  -0.00
     6   6    -0.00   0.00  -0.00    -0.00   0.00  -0.00     0.00   0.00  -0.00
     7   6     0.00  -0.00  -0.00    -0.00   0.00   0.00    -0.00  -0.00   0.00
     8   6    -0.00  -0.00  -0.00     0.00   0.00   0.00    -0.00   0.00   0.00
     9   6    -0.05  -0.02  -0.01     0.05   0.02   0.01    -0.01   0.02  -0.05
    10   6    -0.05   0.02  -0.01    -0.05   0.02  -0.01     0.01   0.02   0.05
    11   1    -0.00  -0.00  -0.00    -0.00  -0.00  -0.00    -0.00   0.00  -0.00
    12   1    -0.00   0.00   0.00    -0.00   0.00  -0.00     0.00  -0.00  -0.01
    13   1     0.00   0.03  -0.01     0.00   0.03  -0.01     0.00   0.05  -0.02
    14   1     0.00  -0.03  -0.01    -0.00   0.03   0.01    -0.00   0.05   0.02
    15   1    -0.00  -0.00   0.00     0.00   0.00   0.00    -0.00  -0.00   0.01
    16   1    -0.00  -0.00   0.01    -0.00  -0.00   0.01    -0.01  -0.01   0.02
    17   1    -0.00   0.00  -0.00     0.00  -0.00   0.00     0.00   0.00   0.00
    18   1    -0.00   0.00   0.01     0.00  -0.00  -0.01     0.01  -0.01  -0.02
    19   1     0.59   0.24   0.28    -0.59  -0.24  -0.28     0.09   0.04   0.03
    20   1    -0.03   0.05  -0.11     0.03  -0.04   0.11     0.09  -0.30   0.62
    21   1     0.59  -0.24   0.28     0.59  -0.24   0.28    -0.09   0.04  -0.03
    22   1    -0.03  -0.05  -0.11    -0.03  -0.04  -0.11    -0.09  -0.30  -0.62
                     52                     53                     54
                      A                      A                      A
 Frequencies --   3080.3213              3114.2269              3123.4732
 Red. masses --      1.0901                 1.0892                 1.0886
 Frc consts  --      6.0943                 6.2237                 6.2572
 IR Inten    --     43.0806                10.2140                54.4967
  Atom  AN      X      Y      Z        X      Y      Z        X      Y      Z
     1   6    -0.00   0.00  -0.00     0.00   0.00   0.00     0.00   0.00   0.00
     2   6    -0.00  -0.00   0.00     0.00   0.00  -0.00     0.00   0.00  -0.00
     3   6    -0.00  -0.00   0.00    -0.00  -0.05   0.03    -0.00  -0.05   0.03
     4   6    -0.00   0.00   0.00    -0.00   0.05   0.03     0.00  -0.05  -0.03
     5   6    -0.00   0.00   0.00     0.00  -0.00  -0.00    -0.00   0.00   0.00
     6   6    -0.00  -0.00   0.00    -0.00  -0.00   0.00    -0.00  -0.00   0.00
     7   6    -0.00  -0.00  -0.00     0.00  -0.00   0.00    -0.00   0.00  -0.00
     8   6    -0.00   0.00   0.00    -0.00   0.00   0.00     0.00  -0.00  -0.00
     9   6    -0.01   0.02  -0.06     0.00   0.00   0.00    -0.00  -0.00   0.00
    10   6    -0.01  -0.02  -0.06     0.00  -0.00   0.00     0.00  -0.00  -0.00
    11   1     0.00   0.00   0.00    -0.00  -0.00  -0.00    -0.00   0.00  -0.00
    12   1     0.00  -0.00  -0.00    -0.02   0.00   0.04    -0.02   0.00   0.04
    13   1     0.00   0.01  -0.01     0.03   0.63  -0.31     0.03   0.63  -0.31
    14   1     0.00  -0.01  -0.01     0.03  -0.63  -0.31    -0.03   0.63   0.31
    15   1     0.00   0.00  -0.00    -0.02  -0.00   0.04     0.02   0.00  -0.04
    16   1     0.02   0.01  -0.02     0.00   0.00  -0.01     0.01   0.01  -0.01
    17   1     0.00  -0.00   0.00    -0.00   0.00  -0.00     0.00   0.00   0.00
    18   1     0.02  -0.01  -0.02     0.00  -0.00  -0.01    -0.01   0.01   0.01
    19   1     0.10   0.05   0.03    -0.03  -0.01  -0.01     0.02   0.01   0.01
    20   1     0.09  -0.30   0.62    -0.00   0.00  -0.01    -0.01   0.02  -0.05
    21   1     0.10  -0.05   0.03    -0.03   0.01  -0.01    -0.02   0.01  -0.01
    22   1     0.09   0.30   0.62    -0.00  -0.00  -0.01     0.01   0.02   0.05
                     55                     56                     57
                      A                      A                      A
 Frequencies --   3183.8578              3185.5625              3211.1972
 Red. masses --      1.0885                 1.0888                 1.0969
 Frc consts  --      6.5012                 6.5099                 6.6643
 IR Inten    --     15.9443                14.5144                15.7230
  Atom  AN      X      Y      Z        X      Y      Z        X      Y      Z
     1   6     0.00   0.05   0.02    -0.00  -0.05  -0.02    -0.00   0.02   0.01
     2   6     0.00  -0.00  -0.01    -0.00   0.00   0.01     0.00  -0.00  -0.01
     3   6     0.00   0.00  -0.00    -0.00  -0.00   0.00    -0.00   0.00   0.00
     4   6     0.00  -0.00  -0.00     0.00  -0.00  -0.00    -0.00  -0.00   0.00
     5   6     0.00   0.00  -0.01     0.00   0.00  -0.01     0.00   0.00  -0.01
     6   6    -0.01  -0.01   0.01     0.01   0.01  -0.01     0.03   0.03  -0.04
     7   6     0.00  -0.05   0.02     0.00  -0.05   0.02    -0.00  -0.02   0.01
     8   6    -0.01   0.01   0.01    -0.01   0.01   0.01     0.03  -0.03  -0.04
     9   6     0.00  -0.00   0.00     0.00  -0.00   0.00     0.00   0.00  -0.00
    10   6     0.00   0.00   0.00    -0.00  -0.00  -0.00     0.00  -0.00  -0.00
    11   1     0.00  -0.61  -0.19     0.00   0.61   0.19     0.00  -0.23  -0.07
    12   1    -0.05   0.01   0.10     0.04  -0.01  -0.09    -0.06   0.01   0.14
    13   1    -0.00  -0.01   0.00     0.00   0.01  -0.00     0.00  -0.00   0.00
    14   1    -0.00   0.01   0.00    -0.00   0.01   0.00     0.00   0.00   0.00
    15   1    -0.05  -0.01   0.10    -0.04  -0.01   0.09    -0.06  -0.01   0.13
    16   1     0.13   0.15  -0.18    -0.14  -0.15   0.19    -0.33  -0.35   0.44
    17   1     0.00   0.61  -0.19    -0.00   0.61  -0.19     0.00   0.23  -0.07
    18   1     0.13  -0.15  -0.18     0.14  -0.15  -0.19    -0.32   0.35   0.43
    19   1    -0.00   0.00   0.00    -0.00  -0.00  -0.00    -0.00  -0.00  -0.00
    20   1    -0.00   0.00  -0.01    -0.00   0.01  -0.01     0.00  -0.01   0.02
    21   1    -0.00  -0.00   0.00     0.00  -0.00   0.00    -0.00   0.00  -0.00
    22   1    -0.00  -0.00  -0.01     0.00   0.01   0.01     0.00   0.01   0.02
                     58                     59                     60
                      A                      A                      A
 Frequencies --   3211.3998              3233.1283              3234.1589
 Red. masses --      1.0973                 1.0966                 1.0975
[...]
 -0.00046738,0.00007984,0.00045381,-0.00125279,-0.00349662,0.00346536,0
 .00104111,0.00036830,0.00056131,0.00097375,0.04772295,-0.00065207,0.00
 560984,-0.00299615,-0.12242252,0.01822480,-0.29535626,-0.00642060,-0.0
 0448881,-0.00557596,0.00037157,-0.00014291,-0.00035373,-0.00094715,0.0
 0079467,-0.00022808,-0.00222891,-0.00012891,-0.00090748,0.00026790,-0.
 00033391,0.00109165,0.00143059,-0.00080549,-0.00153896,-0.00056168,-0.
 00039809,-0.00027771,0.00005406,0.00096872,-0.00065423,0.00078364,-0.0
 0051305,-0.00036364,0.13030359,-0.02008517,0.30667721,0.00354456,0.000
 08065,0.00136410,-0.00103881,-0.00482846,0.00245016,-0.03788692,0.0000
 4545,-0.01579974,-0.00893477,0.01722996,0.01567315,-0.00287213,-0.0042
 2267,-0.00012018,-0.00319316,0.00104799,-0.00474121,-0.00073936,0.0011
 5460,-0.00145806,-0.00060638,0.00109019,0.00150694,0.00209829,0.000551
 83,0.00070309,0.00022362,-0.02045590,-0.00617319,0.00013668,-0.0002306
 8,0.00007036,-0.00112271,0.00016097,0.00087256,0.04701428,0.00021810,-
 0.00401290,0.00183795,-0.00145684,-0.01655333,-0.01382495,-0.00674799,
 -0.26772833,-0.10807513,-0.00092141,-0.00012302,0.00068630,-0.00030596
 ,0.00053562,-0.00014246,0.00054871,-0.00048096,0.00077991,-0.00010251,
 0.00066909,0.00016517,-0.00022803,-0.00029481,0.00051193,0.00009248,-0
 .00007584,-0.00026178,0.00117676,0.00092498,0.00136316,-0.00123714,-0.
 00048860,-0.00023038,-0.00017962,0.00078895,0.00064125,0.00965003,0.28
 536617,-0.00159168,0.00319665,-0.00346072,0.00243191,0.02073091,0.0114
 5501,-0.01468416,-0.11334173,-0.09850079,0.00437425,-0.01170948,-0.009
 27626,0.00217751,0.00152515,0.00007992,-0.00321272,-0.00116240,-0.0021
 7638,-0.00014283,-0.00028113,-0.00037332,0.00003683,0.00074024,-0.0003
 2001,-0.00088775,-0.00015475,0.00023149,0.00464428,-0.01494408,-0.0059
 3282,0.00097727,0.00057948,0.00032438,0.00068774,-0.00139670,-0.000027
 71,0.00700526,0.11650432,0.10588678,-0.00073949,-0.00115486,-0.0014581
 3,-0.00287205,0.00422264,-0.00012063,-0.00893472,-0.01722843,0.0156750
 5,-0.03788686,-0.00004312,-0.01580182,-0.00103867,0.00482874,0.0024496
 3,-0.00060651,-0.00109020,0.00150725,0.00354442,-0.00008032,0.00136392
 ,-0.00319323,-0.00104839,-0.00474098,0.00022325,0.02045535,-0.00617548
 ,0.00209831,-0.00055176,0.00070316,0.00034703,-0.00018050,-0.00031587,
 0.00017023,-0.00020313,0.00004367,0.00147215,0.00001223,-0.00057754,0.
 04701496,0.00010248,0.00066909,-0.00016534,0.00030616,0.00053554,0.000
 14242,0.00092175,-0.00012205,-0.00068704,0.00675031,-0.26770514,0.1080
 9333,0.00145745,-0.01655410,0.01382787,0.00022804,-0.00029497,-0.00051
 192,-0.00021819,-0.00401341,-0.00183787,-0.00054911,-0.00048091,-0.000
 78013,-0.00117631,0.00092668,-0.00136397,-0.00009251,-0.00007583,0.000
 26183,-0.00006602,0.00006088,0.00005144,0.00004597,-0.00001856,-0.0000
 4405,-0.00001229,0.00094808,0.00008685,-0.00965337,0.28534157,-0.00014
 279,0.00028106,-0.00037331,0.00217748,-0.00152525,0.00008012,0.0043742
 8,0.01170879,-0.00927771,-0.01468712,0.11336011,-0.09852407,0.00243213
 ,-0.02072808,0.01145559,0.00003684,-0.00074028,-0.00031997,-0.00159168
 ,-0.00319661,-0.00346010,-0.00321259,0.00116206,-0.00217633,0.00464405
 ,0.01494328,-0.00593425,-0.00088783,0.00015481,0.00023149,-0.00015397,
 0.00003384,0.00013063,-0.00009800,0.00013707,0.00001777,-0.00057756,-0
 .00008696,-0.00004578,0.00700845,-0.11652358,0.10591151,-0.00111090,-0
 .00100160,-0.00312329,0.00232916,0.00233467,0.00120838,-0.00140719,-0.
 00105039,0.00155139,0.00264072,0.00043058,0.00155201,-0.07500635,0.001
 29460,-0.12156686,-0.00360056,-0.00106998,0.00488414,-0.00488493,-0.00
 328673,-0.01339549,0.00135986,0.00393537,0.00006854,0.00145128,-0.0001
 5178,-0.00146553,0.00036031,-0.00047875,-0.00008098,0.00001932,-0.0000
 1325,-0.00008784,-0.00037831,0.00016447,0.00006155,0.00017024,-0.00004
 597,-0.00009800,-0.00112271,0.00017966,0.00068772,0.08048875,-0.000199
 20,-0.00019823,-0.00088991,0.00097833,-0.00001095,0.00075486,-0.000592
 00,-0.00060742,-0.00052382,-0.01092941,0.00538178,-0.01857677,0.003707
 18,-0.05544312,-0.02078521,-0.00096731,-0.00045178,0.00138578,0.005534
 17,0.00823980,0.01918224,0.00266214,-0.00341917,0.00294735,0.00125280,
 -0.00349703,-0.00346509,0.00046737,0.00007984,-0.00045385,0.00003745,0
 .00000084,0.00000272,-0.00016447,0.00002367,0.00003015,0.00020317,-0.0
 0001857,-0.00013709,-0.00016091,0.00078905,0.00139663,-0.00096068,0.04
 772671,0.00026796,0.00033405,0.00109185,-0.00094724,-0.00079478,-0.000
 22818,0.00037174,0.00014298,-0.00035378,-0.00641948,0.00448779,-0.0055
 7427,-0.12242283,-0.01825031,-0.29535410,0.00143090,0.00080554,-0.0015
 3942,-0.00065198,-0.00561098,-0.00299702,-0.00222905,0.00012900,-0.000
 90796,0.00005394,-0.00096834,-0.00065378,-0.00056178,0.00039803,-0.000
 27768,0.00000268,-0.00000484,0.00001907,0.00006158,-0.00003016,0.00004
 523,0.00004364,0.00004405,0.00001778,0.00087258,-0.00064133,-0.0000277
 8,0.13030262,0.02011247,0.30667455,-0.00093864,-0.00652905,-0.00358306
 ,0.00283683,0.00026733,-0.00476836,-0.00078770,-0.00035898,-0.00115999
 ,0.00046146,0.00009580,0.00038624,-0.00019559,0.00016009,-0.00055423,-
 0.10510743,-0.08039332,-0.11211182,0.00051919,-0.00053460,0.00048033,-
 0.00012710,-0.00003572,-0.00054111,0.00018646,0.00053501,0.00005010,0.
 00262481,0.00292270,0.00396552,-0.00261212,0.00072867,0.00172936,0.000
 32495,-0.00112942,-0.00032672,0.00052180,-0.00011189,-0.00080937,-0.00
 004359,-0.00010753,-0.00007047,0.00001232,-0.00014159,0.00020073,0.102
 69149,0.00712785,0.01025119,0.00855455,0.00064156,-0.00093653,0.003135
 76,0.00133219,-0.00555147,-0.00027005,0.00041177,-0.00005347,-0.000195
 01,0.00020856,-0.00014223,-0.00011538,-0.07947133,-0.14190489,-0.10704
 051,-0.00013065,0.00024245,-0.00008190,-0.00022032,-0.00007619,0.00028
 134,-0.00002899,0.00013698,-0.00002678,-0.01414155,-0.00457275,-0.0173
 6786,-0.00008906,0.00022970,-0.00113085,0.00013040,0.00088306,0.000279
 41,-0.00154789,0.00002860,-0.00089356,0.00003783,0.00004789,-0.0000524
 7,-0.00011931,-0.00001633,0.00013366,0.08527912,0.14091824,-0.01044863
 ,-0.01774015,-0.00806973,-0.00320495,0.00216843,-0.00219453,0.00060031
 ,0.00208868,0.00032221,-0.00005000,-0.00000672,-0.00028092,0.00004288,
 0.00008096,0.00064191,-0.10771072,-0.10283263,-0.18063765,-0.00030123,
 0.00018709,-0.00030374,0.00012440,0.00016972,0.00032868,-0.00006512,-0
 .00031505,-0.00000014,0.00246509,0.00312893,0.00245431,0.00203472,0.00
 012563,-0.00036268,-0.00083470,-0.00066197,-0.00018192,-0.00013561,0.0
 0000997,0.00084249,-0.00001819,0.00006409,0.00009158,-0.00010986,0.000
 01373,0.00003198,0.11765867,0.11439220,0.18683774,0.00029855,-0.000125
 11,0.00032418,-0.00024007,-0.00005008,0.00011231,-0.00006664,-0.001214
 26,-0.00047116,0.00329868,0.00337983,-0.00488377,0.00142663,0.01426779
 ,0.00593837,0.00051115,0.00002631,-0.00063353,-0.04170275,0.00122348,-
 0.00571820,0.00320528,-0.01280262,-0.00312058,0.00481548,0.00021778,-0
 .00606606,-0.00002957,0.00002852,0.00001606,-0.00014201,-0.00003793,0.
 00011953,0.00001932,-0.00003745,0.00000269,0.00034700,0.00006600,-0.00
 015396,0.00013665,0.00123725,0.00097715,-0.00171800,-0.00104104,0.0007
 8363,-0.00010403,0.00002087,0.00002111,0.03255894,-0.00009739,-0.00020
 959,-0.00015487,-0.00013619,0.00025575,-0.00034164,-0.00041318,-0.0003
 7454,0.00033442,0.00154979,-0.00224406,0.00121890,-0.00328650,-0.01149
 517,-0.01002606,-0.00008668,0.00034359,0.00039200,0.00437998,-0.313644
 76,-0.07977437,0.00180711,-0.00364264,0.00142377,0.00152037,0.00039047
 ,-0.00148848,0.00002856,-0.00005866,-0.00006479,0.00003793,0.00015931,
 -0.00006990,0.00001323,0.00000084,0.00000484,0.00018048,0.00006087,-0.
 00003384,0.00023069,-0.00048861,-0.00057937,-0.00014117,0.00036825,0.0
 0051298,0.00013689,0.00000572,-0.00002736,-0.00472875,0.33068520,-0.00
 008970,-0.00007605,0.00000882,0.00023998,-0.00012730,-0.00000480,0.000
 49364,0.00089553,-0.00004092,-0.00449621,0.00223859,0.00019382,0.00156
 358,0.01309638,0.00976613,-0.00013667,0.00001248,0.00043347,-0.0077166
 7,-0.07772281,-0.08074835,0.00111121,-0.02460690,0.00190346,-0.0040558
 4,-0.00167007,-0.00216249,0.00006451,-0.00001969,-0.00008206,0.0001195
 2,0.00006988,-0.00007052,-0.00008783,-0.00000272,0.00001907,-0.0003158
 8,-0.00005144,0.00013063,0.00007034,0.00023044,0.00032440,0.00136408,-
 0.00056136,-0.00036363,0.00000392,-0.00003033,-0.00001650,0.01019445,0
 .08869467,0.07126015,0.00051911,0.00053457,0.00048021,-0.00019548,-0.0
 0016018,-0.00055405,0.00046151,-0.00009576,0.00038627,-0.00078751,0.00
 035901,-0.00116000,0.00283696,-0.00026790,-0.00476853,-0.00012709,0.00
 003567,-0.00054099,-0.00093891,0.00652904,-0.00358414,-0.10511512,0.08
 038499,-0.11212349,0.00262453,-0.00292208,0.00396510,0.00018651,-0.000
 53505,0.00005010,-0.00010402,-0.00013688,0.00000392,0.00001229,0.00014
 160,0.00020069,-0.00004359,0.00010750,-0.00007047,0.00052168,0.0001118
 1,-0.00080938,0.00032483,0.00112945,-0.00032685,0.00003838,0.00002249,
 -0.00002436,-0.00261213,-0.00072860,0.00172952,0.10269951,0.00013063,0
 .00024244,0.00008186,-0.00020852,-0.00014224,0.00011547,-0.00041172,-0
 .00005344,0.00019498,-0.00133203,-0.00555160,0.00027061,-0.00064187,-0
 .00093714,-0.00313597,0.00022036,-0.00007621,-0.00028131,-0.00712931,0
 .01025212,-0.00855646,0.07946378,-0.14188055,0.10703317,0.01414213,-0.
 00457106,0.01736856,0.00002899,0.00013699,0.00002677,-0.00002087,0.000
 00573,0.00003033,0.00011927,-0.00001633,-0.00013362,-0.00003783,0.0000
 4789,0.00005247,0.00154791,0.00002871,0.00089358,-0.00013049,0.0008831
 4,-0.00027953,-0.00002249,0.00003289,0.00000841,0.00008920,0.00022979,
 0.00113084,-0.08527063,0.14089171,-0.00030120,-0.00018712,-0.00030370,
 0.00004283,-0.00008083,0.00064182,-0.00005001,0.00000671,-0.00028099,0
 .00060043,-0.00208816,0.00032240,-0.00320500,-0.00216851,-0.00219376,0
 .00012437,-0.00016968,0.00032866,-0.01044837,0.01773789,-0.00807025,-0
 .10772285,0.10282540,-0.18065576,0.00246385,-0.00312821,0.00245296,-0.
 00006516,0.00031509,-0.00000015,0.00002111,0.00002736,-0.00001650,-0.0
 0010985,-0.00001373,0.00003198,-0.00001819,-0.00006408,0.00009157,-0.0
 0013573,-0.00000989,0.00084241,-0.00083473,0.00066176,-0.00018191,-0.0
 0002436,-0.00000841,0.00002057,0.00203480,-0.00012562,-0.00036288,0.11
 767184,-0.11438395,0.18685719,-0.00053868,0.00006429,-0.00034274,-0.00
 027014,0.00162268,-0.00122355,-0.00327288,-0.00148389,-0.00024902,-0.0
 1929903,-0.00788202,0.00770032,0.00002256,0.00177688,-0.00002264,-0.00
 065724,0.00003678,-0.00010759,0.00087120,0.00044877,0.00090502,0.00334
 122,-0.00181611,-0.00113866,-0.21994686,-0.06994781,0.08261727,-0.0005
 3506,-0.00086318,0.00049825,-0.00000990,-0.00009620,0.00000153,0.00020
 525,-0.00001932,-0.00000619,0.00034719,0.00007062,-0.00015707,0.000881
 02,0.00064034,0.00012364,0.00001183,-0.00008382,-0.00020739,0.00009439
 ,-0.00003907,-0.00010155,-0.00020968,-0.00015110,0.00004431,-0.0004131
 0,-0.00055006,-0.00003872,0.24324436,-0.00021022,0.00024596,-0.0002967
 9,-0.00056158,-0.00024631,0.00038761,0.00112628,0.00017867,0.00126635,
 0.00750598,0.00215786,-0.00253296,-0.00051694,0.00027832,0.00056084,0.
 00007266,-0.00041846,-0.00043104,0.00190972,-0.00250445,0.00297009,-0.
 02697109,-0.01765892,0.00743059,-0.07560935,-0.06751576,0.03164921,0.0
 0047503,0.00007016,-0.00016081,0.00002692,0.00000481,0.00001527,0.0001
 3885,-0.00006428,0.00007511,-0.00017403,0.00015254,0.00020667,-0.00016
 279,0.00028812,-0.00031098,-0.00003357,0.00002288,0.00000940,-0.000140
 97,0.00005989,0.00008352,0.00134674,0.00018568,-0.00091785,0.00074821,
 -0.00023370,-0.00000901,0.07950955,0.07972517,-0.00067263,-0.00086032,
 -0.00171819,0.00114914,0.00207025,-0.00031895,-0.00204985,-0.00077277,
 0.00033451,-0.01548478,-0.00711475,0.00463446,0.00153684,-0.00124419,0
 .00151528,-0.00122921,-0.00034521,0.00164739,-0.00281693,0.00079134,-0
 .00252531,0.00152867,0.00407150,0.00049616,0.08378757,0.02878553,-0.08
 209655,0.00017093,-0.00027677,-0.00009643,0.00005694,-0.00000422,-0.00
 007398,-0.00040370,0.00009920,0.00043073,0.00001869,0.00016946,0.00007
 963,0.00064531,0.00018372,0.00091370,0.00008750,0.00006624,-0.00022386
 ,-0.00007498,-0.00000019,0.00006814,0.00030797,0.00005092,-0.00023623,
 -0.00017794,0.00041295,0.00021244,-0.09056928,-0.03541041,0.08837195,0
 .00032204,0.00001518,0.00039562,-0.00057560,-0.00071219,0.00001868,0.0
 0033874,-0.00056745,-0.00197911,0.00148673,-0.01220161,-0.01806278,-0.
 00367196,0.00212392,-0.00399537,0.00044684,0.00026803,-0.00019252,0.00
 182909,-0.00008164,0.00059933,-0.00212930,-0.00250559,0.00091098,-0.05
 040651,0.01957021,0.03403607,-0.00008330,0.00032100,0.00010688,0.00000
 801,0.00004569,0.00003263,-0.00026211,-0.00038346,0.00004699,-0.000200
 97,0.00033203,-0.00005996,-0.00011806,0.00029679,-0.00001331,0.0001172
 0,-0.00113442,-0.00066615,0.00008462,0.00000473,-0.00001954,0.00020910
 ,-0.00016598,-0.00013441,-0.00006738,-0.00002077,0.00011606,-0.0038150
 9,0.01134515,0.02420470,0.05649726,-0.00045357,-0.00014330,-0.00059421
 ,0.00020826,0.00008682,-0.00034115,-0.00015163,0.00045524,0.00047734,-
 0.00182395,0.00326184,0.00717084,0.00240624,-0.00081005,0.00069069,-0.
 00019271,-0.00034949,0.00034262,0.00070783,-0.00594380,-0.00039542,0.0
 0245811,-0.00956817,-0.02913852,0.01680979,-0.09385219,-0.09895632,0.0
 0006014,-0.00007558,0.00005994,0.00002576,-0.00000872,-0.00001240,-0.0
 0032144,-0.00017450,0.00043270,-0.00009612,0.00004253,0.00009691,-0.00
 004767,-0.00007702,-0.00002410,-0.00003822,0.00038551,-0.00002201,-0.0
 0005402,0.00001569,0.00005826,-0.00181388,-0.00052352,-0.00057942,-0.0
 0018220,0.00063531,0.00100475,-0.00109884,0.00500093,0.00952007,-0.016
 45726,0.10151792,0.00003197,-0.00025265,-0.00047730,0.00055054,0.00075
 745,0.00098922,0.00170168,-0.00026234,-0.00043390,0.00389727,-0.007974
 82,-0.01342500,-0.00204278,0.00000840,-0.00200189,0.00040308,-0.000314
 94,0.00057137,0.00011774,0.00115984,-0.00120753,-0.00068637,0.00194157
 ,0.00503810,0.03053156,-0.10020870,-0.25533421,0.00028077,0.00062062,-
 0.00010028,0.00006297,0.00000155,-0.00005674,-0.00013753,0.00009791,0.
 00045870,-0.00057355,0.00044665,0.00051847,-0.00044013,0.00023923,-0.0
 0045807,-0.00046405,-0.00096385,-0.00008653,-0.00020852,0.00006126,0.0
 0013855,0.00009511,0.00005113,0.00017914,-0.00006397,-0.00078811,0.000
 05717,0.00245705,-0.00478202,-0.01124544,-0.03543254,0.11018806,0.2768
 3743,0.00087133,-0.00044856,0.00090523,0.00002258,-0.00177695,-0.00002
 249,-0.01929896,0.00788206,0.00769933,-0.00327294,0.00148385,-0.000249
 13,-0.00027018,-0.00162277,-0.00122341,0.00334022,0.00181659,-0.001138
 54,-0.00053867,-0.00006438,-0.00034266,-0.00065718,-0.00003683,-0.0001
 0765,-0.00053509,0.00086323,0.00049822,-0.21995257,0.06995100,0.082610
 85,-0.00020965,0.00015109,0.00004427,0.00001184,0.00008379,-0.00020740
 ,0.00088100,-0.00064031,0.00012369,0.00034721,-0.00007063,-0.00015708,
 0.00020527,0.00001933,-0.00000619,-0.00041308,0.00055004,-0.00003879,-
 0.00000991,0.00009620,0.00000152,0.00009440,0.00003907,-0.00010156,-0.
 00002466,0.00013826,-0.00002431,-0.00002672,0.00000019,-0.00015869,0.2
 4325069,-0.00190975,-0.00250475,-0.00297012,0.00051703,0.00027842,-0.0
 0056068,-0.00750810,0.00215873,0.00253337,-0.00112654,0.00017857,-0.00
 126642,0.00056174,-0.00024663,-0.00038760,0.02697167,-0.01765898,-0.00
 742865,0.00021021,0.00024609,0.00029658,-0.00007273,-0.00041844,0.0004
 3121,-0.00047505,0.00007022,0.00016083,0.07561260,-0.06751676,-0.03164
 726,-0.00134668,0.00018573,0.00091772,0.00003358,0.00002287,-0.0000094
 3,0.00016289,0.00028809,0.00031104,0.00017403,0.00015251,-0.00020670,-
 0.00013889,-0.00006430,-0.00007506,-0.00074822,-0.00023374,0.00000904,
 -0.00002692,0.00000480,-0.00001528,0.00014095,0.00005989,-0.00008352,-
 0.00013828,0.00020721,-0.00018261,-0.00003718,0.00006370,-0.00001464,-
 0.07951313,0.07972660,-0.00281670,-0.00079140,-0.00252496,0.00153654,0
 .00124441,0.00151527,-0.01548436,0.00711456,0.00463350,-0.00204979,0.0
 0077279,0.00033451,0.00114908,-0.00207027,-0.00031872,0.00152643,-0.00
 406994,0.00049710,-0.00067262,0.00086011,-0.00171822,-0.00122909,0.000
 34531,0.00164723,0.00017093,0.00027677,-0.00009645,0.08378055,-0.02878
 355,-0.08208975,0.00030810,-0.00005096,-0.00023629,0.00008754,-0.00006
 628,-0.00022387,0.00064532,-0.00018366,0.00091367,0.00001868,-0.000169
 48,0.00007968,-0.00040370,-0.00009916,0.00043074,-0.00017786,-0.000412
 90,0.00021247,0.00005694,0.00000421,-0.00007398,-0.00007499,0.00000019
 ,0.00006816,-0.00002431,0.00018258,-0.00013564,0.00000936,0.00000975,-
 0.00003384,-0.09056201,0.03540770,0.08836405,0.00182913,0.00008193,0.0
 0059929,-0.00367175,-0.00212437,-0.00399510,0.00148649,0.01219993,-0.0
 1806352,0.00033865,0.00056726,-0.00197919,-0.00057563,0.00071222,0.000
 01859,-0.00212936,0.00250586,0.00090980,0.00032201,-0.00001515,0.00039
 560,0.00044681,-0.00026803,-0.00019247,-0.00008329,-0.00032099,0.00010
 692,-0.05040619,-0.01956668,0.03403699,0.00020905,0.00016599,-0.000134
 44,0.00011720,0.00113433,-0.00066627,-0.00011801,-0.00029679,-0.000013
 22,-0.00020102,-0.00033205,-0.00005995,-0.00026213,0.00038346,0.000046
 95,-0.00006740,0.00002076,0.00011610,0.00000801,-0.00004569,0.00003263
 ,0.00008462,-0.00000473,-0.00001955,-0.00002672,0.00003717,0.00000936,
 0.00001738,0.00005518,0.00007839,-0.00381496,-0.01134322,0.02420598,0.
 05649710,-0.00070757,-0.00594392,0.00039593,-0.00240649,-0.00081023,-0
 .00069097,0.00182436,0.00326234,-0.00717293,0.00015176,0.00045520,-0.0
 0047745,-0.00020828,0.00008671,0.00034130,-0.00245812,-0.00956554,0.02
 913971,0.00045362,-0.00014319,0.00059414,0.00019274,-0.00034951,-0.000
 34254,-0.00006010,-0.00007565,-0.00005994,-0.01680654,-0.09383515,0.09
 894241,0.00181383,-0.00052340,0.00057958,0.00003816,0.00038564,0.00002
 194,0.00004766,-0.00007703,0.00002409,0.00009604,0.00004249,-0.0000968
 7,0.00032142,-0.00017457,-0.00043260,0.00018218,0.00063529,-0.00100478
 ,-0.00002575,-0.00000873,0.00001240,0.00005399,0.00001568,-0.00005824,
 -0.00000021,0.00006370,-0.00000975,-0.00005517,0.00006087,-0.00001161,
 0.00109886,0.00500016,-0.00952077,0.01645360,0.10149884,0.00011787,-0.
 00115938,-0.00120745,-0.00204269,-0.00000858,-0.00200187,0.00389712,0.
 00797358,-0.01342524,0.00170164,0.00026233,-0.00043389,0.00055059,-0.0
 0075740,0.00098927,-0.00068609,-0.00194028,0.00503556,0.00003194,0.000
 25263,-0.00047738,0.00040306,0.00031501,0.00057135,0.00028077,-0.00062
 062,-0.00010022,0.03053205,0.10019476,-0.25535213,0.00009492,-0.000051
 06,0.00017912,-0.00046405,0.00096381,-0.00008664,-0.00044009,-0.000239
 30,-0.00045801,-0.00057354,-0.00044663,0.00051853,-0.00013759,-0.00009
 782,0.00045869,-0.00006402,0.00078805,0.00005719,0.00006296,-0.0000015
 6,-0.00005673,-0.00020852,-0.00006125,0.00013857,-0.00015869,0.0000146
 3,-0.00003384,0.00007840,0.00001162,0.00007259,0.00245681,0.00478048,-
 0.01124467,-0.03543286,-0.11017301,0.27685721\\-0.00025571,-0.00044808
 ,-0.00090613,-0.00231387,0.00107945,0.00080362,-0.00533257,-0.00005883
 ,0.00419156,0.00533268,-0.00005802,-0.00419126,0.00231391,0.00107876,-
 0.00080423,-0.00201785,-0.00027554,0.00072203,0.00025560,-0.00044763,0
 .00090592,0.00201823,-0.00027569,-0.00072093,0.00110391,-0.00027513,-0
 .00054648,-0.00110398,-0.00027486,0.00054650,0.00018757,-0.00007300,-0
 .00016368,0.00002589,-0.00004127,-0.00002770,-0.00004181,0.00013944,0.
 00010364,0.00004173,0.00013925,-0.00010368,-0.00002603,-0.00004121,0.0
 0002755,-0.00013187,-0.00000111,0.00001958,-0.00018758,-0.00007322,0.0
 0016362,0.00013167,-0.00000091,-0.00001985,0.00021433,-0.00001602,0.00
 018799,-0.00011758,-0.00003019,-0.00006882,-0.00021430,-0.00001603,-0.
 00018803,0.00011762,-0.00003014,0.00006879\\\@


 IBM COMPATIBILITY IS LIKE PREGNANCY. YOU ARE OR
 OR YOU ARE NOT. -- ADAM OSBORNE
 Job cpu time:       0 days  1 hours  3 minutes 19.4 seconds.
 Elapsed time:       0 days  0 hours  0 minutes 40.7 seconds.
 File lengths (MBytes):  RWF=    182 Int=      0 D2E=      0 Chk=     11 Scr=      1
 Normal termination of Gaussian 16 at Mon Jul 28 00:18:41 2025.
