 Entering Gaussian System, Link 0=g16
 Initial command:
 /home/hongchang/data/software/Gaussian/g16/l1.exe "/home/hongchang/data/software/Gaussian/g16/scratch/Gau-1358192.inp" -scrdir="/home/hongchang/data/software/Gaussian/g16/scratch/"
 Entering Link 1 = /home/hongchang/data/software/Gaussian/g16/l1.exe PID=   1358193.
  
 Copyright (c) 1988,1990,1992,1993,1995,1998,2003,2009,2016,
            Gaussian, Inc.  All Rights Reserved.
  
 This is part of the Gaussian(R) 16 program.  It is based on
 the Gaussian(R) 09 system (copyright 2009, Gaussian, Inc.),
 the Gaussian(R) 03 system (copyright 2003, Gaussian, Inc.),
 the Gaussian(R) 98 system (copyright 1998, Gaussian, Inc.),
 the Gaussian(R) 94 system (copyright 1995, Gaussian, Inc.),
 the Gaussian 92(TM) system (copyright 1992, Gaussian, Inc.),
 the Gaussian 90(TM) system (copyright 1990, Gaussian, Inc.),
 the Gaussian 88(TM) system (copyright 1988, Gaussian, Inc.),
 the Gaussian 86(TM) system (copyright 1986, Carnegie Mellon
 University), and the Gaussian 82(TM) system (copyright 1983,
 Carnegie Mellon University). Gaussian is a federally registered
 trademark of Gaussian, Inc.
  
 This software contains proprietary and confidential information,
 including trade secrets, belonging to Gaussian, Inc.
  
 This software is provided under written license and may be
 used, copied, transmitted, or stored only in accord with that
 written license.
  
 The following legend is applicable only to US Government
 contracts under FAR:
  
                    RESTRICTED RIGHTS LEGEND
  
 Use, reproduction and disclosure by the US Government is
 subject to restrictions as set forth in subparagraphs (a)
 and (c) of the Commercial Computer Software - Restricted
 Rights clause in FAR 52.227-19.
  
 Gaussian, Inc.
 340 Quinnipiac St., Bldg. 40, Wallingford CT 06492
  
  
 ---------------------------------------------------------------
 Warning -- This program may not be used in any manner that
 competes with the business of Gaussian, Inc. or will provide
 assistance to any competitor of Gaussian, Inc.  The licensee
 of this program is prohibited from giving any competitor of
 Gaussian, Inc. access to this program.  By using this program,
 the user acknowledges that Gaussian, Inc. is engaged in the
 business of creating and licensing software in the field of
 computational chemistry and represents and warrants to the
 licensee that it is not a competitor of Gaussian, Inc. and that
 it will not use this program in any manner prohibited above.
 ---------------------------------------------------------------
  

 Cite this work as:
 Gaussian 16, Revision A.03,
 M. J. Frisch, G. W. Trucks, H. B. Schlegel, G. E. Scuseria, 
 M. A. Robb, J. R. Cheeseman, G. Scalmani, V. Barone, 
 G. A. Petersson, H. Nakatsuji, X. Li, M. Caricato, A. V. Marenich, 
 J. Bloino, B. G. Janesko, R. Gomperts, B. Mennucci, H. P. Hratchian, 
 J. V. Ortiz, A. F. Izmaylov, J. L. Sonnenberg, D. Williams-Young, 
 F. Ding, F. Lipparini, F. Egidi, J. Goings, B. Peng, A. Petrone, 
 T. Henderson, D. Ranasinghe, V. G. Zakrzewski, J. Gao, N. Rega, 
 G. Zheng, W. Liang, M. Hada, M. Ehara, K. Toyota, R. Fukuda, 
 J. Hasegawa, M. Ishida, T. Nakajima, Y. Honda, O. Kitao, H. Nakai, 
 T. Vreven, K. Throssell, J. A. Montgomery, Jr., J. E. Peralta, 
 F. Ogliaro, M. J. Bearpark, J. J. Heyd, E. N. Brothers, K. N. Kudin, 
 V. N. Staroverov, T. A. Keith, R. Kobayashi, J. Normand, 
 K. Raghavachari, A. P. Rendell, J. C. Burant, S. S. Iyengar, 
 J. Tomasi, M. Cossi, J. M. Millam, M. Klene, C. Adamo, R. Cammi, 
 J. W. Ochterski, R. L. Martin, K. Morokuma, O. Farkas, 
 J. B. Foresman, and D. J. Fox, Gaussian, Inc., Wallingford CT, 2016.
 
 ******************************************
 Gaussian 16:  ES64L-G16RevA.03 25-Dec-2016
                28-Jul-2025 
 ******************************************
 %nprocshared=96
 Will use up to   96 processors via shared memory.
 %mem=600GB
 %chk=01_02_path1_5.chk
 -----------------------------------------------------------
 # freq b3lyp/6-311g(d,p) em=gd3bj scrf(solvent=Cis-Decalin)
 -----------------------------------------------------------
 1/10=4,30=1,38=1/1,3;
 2/12=2,17=6,18=5,40=1/2;
 3/5=4,6=6,7=101,11=2,25=1,30=1,70=2201,71=2,72=99,74=-5,124=41,140=1/1,2,3;
 4//1;
 5/5=2,38=5,53=99,98=1/2;
 8/6=4,10=90,11=11/1;
 11/6=1,8=1,9=11,15=111,16=1/1,2,10;
 10/6=1/2;
 6/7=2,8=2,9=2,10=2,28=1/1;
 7/8=1,10=1,25=1/1,2,3,16;
 1/10=4,30=1/3;
 99//99;
 -------------
 01_02_path1_5
 -------------
 Symbolic Z-matrix:
 Charge =  0 Multiplicity = 1
 C                    -1.36292  -1.16564   0.65611 
 C                    -0.73664  -0.09363   1.36775 
 C                    -0.85174   1.06978   0.61027 
 C                     0.85171   1.06973  -0.61037 
 C                     0.73662  -0.09377  -1.36773 
 C                    -1.92925  -0.6936   -0.48852 
 C                     1.36294  -1.16569  -0.65599 
 C                     1.92929  -0.69353   0.48858 
 C                     1.88621   0.81003   0.46807 
 C                    -1.88622   0.80996  -0.46816 
 H                    -1.3266   -2.20412   0.95902 
 H                    -0.24673  -0.18493   2.32552 
 H                    -0.69236   2.06082   1.01583 
 H                     0.69232   2.06072  -1.01603 
 H                     0.24672  -0.18517  -2.32549 
 H                    -2.45322  -1.27645  -1.23312 
 H                     1.32664  -2.2042   -0.9588 
 H                     2.45328  -1.27629   1.23322 
 H                     2.85471   1.19112   0.10797 
 H                     1.69276   1.2851    1.43047 
 H                    -2.85473   1.19105  -0.1081 
 H                    -1.69277   1.28494  -1.4306 
 

 GradGradGradGradGradGradGradGradGradGradGradGradGradGradGradGradGradGrad
 Berny optimization.
 Initialization pass.
 Trust Radius=3.00D-01 FncErr=1.00D-07 GrdErr=1.00D-07 EigMax=2.50D+02 EigMin=1.00D-04
 Number of steps in this run=      2 maximum allowed number of steps=      2.
 GradGradGradGradGradGradGradGradGradGradGradGradGradGradGradGradGradGrad

                          Input orientation:                          
 ---------------------------------------------------------------------
 Center     Atomic      Atomic             Coordinates (Angstroms)
 Number     Number       Type             X           Y           Z
 ---------------------------------------------------------------------
      1          6           0       -1.362915   -1.165637    0.656106
      2          6           0       -0.736638   -0.093631    1.367748
      3          6           0       -0.851740    1.069784    0.610272
      4          6           0        0.851713    1.069729   -0.610372
      5          6           0        0.736621   -0.093765   -1.367728
      6          6           0       -1.929252   -0.693603   -0.488523
      7          6           0        1.362936   -1.165687   -0.655988
      8          6           0        1.929286   -0.693526    0.488580
      9          6           0        1.886213    0.810029    0.468073
     10          6           0       -1.886223    0.809955   -0.468158
     11          1           0       -1.326599   -2.204117    0.959017
     12          1           0       -0.246733   -0.184927    2.325523
     13          1           0       -0.692361    2.060822    1.015826
     14          1           0        0.692315    2.060723   -1.016027
     15          1           0        0.246715   -0.185165   -2.325492
     16          1           0       -2.453224   -1.276453   -1.233115
     17          1           0        1.326639   -2.204198   -0.958796
     18          1           0        2.453283   -1.276290    1.233222
     19          1           0        2.854709    1.191115    0.107974
     20          1           0        1.692757    1.285101    1.430471
     21          1           0       -2.854733    1.191045   -0.108103
     22          1           0       -1.692773    1.284943   -1.430599
 ---------------------------------------------------------------------
                    Distance matrix (angstroms):
                    1          2          3          4          5
     1  C    0.000000
     2  C    1.431033   0.000000
     3  C    2.293580   1.393037   0.000000
     4  C    3.391962   2.790918   2.095644   0.000000
     5  C    3.106906   3.106979   2.790918   1.393037   0.000000
     6  C    1.361517   2.286490   2.340495   3.295141   2.870485
     7  C    3.025203   3.106931   3.391981   2.293581   1.431035
     8  C    3.330096   2.870533   3.295175   2.340497   2.286491
     9  C    3.807288   2.916396   2.753921   1.516799   2.347034
    10  C    2.332549   2.347033   1.516798   2.753906   2.916376
    11  H    1.082365   2.229185   3.326491   4.233922   3.758218
    12  H    2.234862   1.079664   2.209620   3.376422   3.823009
    13  H    3.314978   2.183455   1.082604   2.451724   3.516470
    14  H    4.174853   3.516466   2.451717   1.082605   2.183455
    15  H    3.527345   3.823007   3.376420   2.209619   1.079664
    16  H    2.184081   3.333200   3.386393   4.100608   3.404700
    17  H    3.304575   3.758246   4.233942   3.326492   2.229187
    18  H    3.861175   3.404758   4.100647   3.386395   3.333202
    19  H    4.862415   4.016886   3.742297   2.131372   2.883559
    20  H    3.992855   2.794064   2.682080   2.217832   3.262727
    21  H    2.891969   2.883549   2.131372   3.742290   4.016866
    22  H    3.235504   3.262730   2.217833   2.682070   2.794055
                    6          7          8          9         10
     6  C    0.000000
     7  C    3.330077   0.000000
     8  C    3.980332   1.361515   0.000000
     9  C    4.211147   2.332549   1.504312   0.000000
    10  C    1.504311   3.807292   4.211165   3.886876   0.000000
    11  H    2.177204   3.304569   3.619942   4.432636   3.381514
    12  H    3.317902   3.527369   2.892765   2.998252   3.388565
    13  H    3.373399   4.174873   3.838939   2.917801   2.278636
    14  H    3.838904   3.314978   3.373400   2.278636   2.917780
    15  H    2.892714   2.234864   3.317903   3.388565   2.998229
    16  H    1.081054   3.861143   4.744516   5.106678   2.293414
    17  H    3.619928   1.082366   2.177202   3.381515   4.432643
    18  H    4.744528   2.184080   1.081054   2.293414   5.106704
    19  H    5.176317   2.891979   2.133809   1.101309   4.790996
    20  H    4.551566   3.235499   2.204103   1.090563   4.079173
    21  H    2.133807   4.862417   5.176338   4.791004   1.101309
    22  H    2.204104   3.992865   4.551582   4.079171   1.090564
                   11         12         13         14         15
    11  H    0.000000
    12  H    2.666567   0.000000
    13  H    4.312214   2.637665   0.000000
    14  H    5.115239   4.134091   2.458812   0.000000
    15  H    4.164071   4.677118   4.134093   2.637664   0.000000
    16  H    2.633493   4.327116   4.392696   4.591110   3.110284
    17  H    3.273787   4.164097   5.115260   4.312214   2.666569
    18  H    3.901738   3.110351   4.591149   4.392697   4.327117
    19  H    5.453000   4.053388   3.763282   2.587575   3.823289
    20  H    4.638256   2.593014   2.542137   2.754601   4.284854
    21  H    3.873121   3.823284   2.587582   3.763272   4.053363
    22  H    4.244748   4.284857   2.754598   2.542115   2.593003
                   16         17         18         19         20
    16  H    0.000000
    17  H    3.901708   0.000000
    18  H    5.491505   2.633493   0.000000
    19  H    6.005128   3.873131   2.741425   0.000000
    20  H    5.553864   4.244743   2.679185   1.762942   0.000000
    21  H    2.741424   5.453002   6.005159   5.713529   4.801637
    22  H    2.679186   4.638270   5.553885   4.801625   4.432554
                   21         22
    21  H    0.000000
    22  H    1.762942   0.000000
 Stoichiometry    C10H12
 Framework group  C1[X(C10H12)]
 Deg. of freedom    60
 Full point group                 C1      NOp   1
 Largest Abelian subgroup         C1      NOp   1
 Largest concise Abelian subgroup C1      NOp   1
                         Standard orientation:                         
 ---------------------------------------------------------------------
 Center     Atomic      Atomic             Coordinates (Angstroms)
 Number     Number       Type             X           Y           Z
 ---------------------------------------------------------------------
      1          6           0        1.367546    1.177661    0.646367
      2          6           0        0.746338    0.105680    1.362476
      3          6           0        0.856052   -1.057760    0.604239
      4          6           0       -0.856032   -1.057739   -0.604270
      5          6           0       -0.746321    0.105730   -1.362462
      6          6           0        1.925734    0.705588   -0.502242
      7          6           0       -1.367559    1.177677   -0.646325
      8          6           0       -1.925763    0.705555    0.502254
      9          6           0       -1.882842   -0.798001    0.481490
     10          6           0        1.882846   -0.797970   -0.481522
     11          1           0        1.333387    2.216151    0.949495
     12          1           0        0.263252    0.197009    2.323705
     13          1           0        0.699555   -2.048784    1.010948
     14          1           0       -0.699523   -2.048747   -1.011015
     15          1           0       -0.263232    0.197097   -2.323686
     16          1           0        2.444404    1.288412   -1.250557
     17          1           0       -1.333412    2.216178   -0.949417
     18          1           0       -2.444454    1.288345    1.250582
     19          1           0       -2.853873   -1.179095    0.128295
     20          1           0       -1.682554   -1.273042    1.442505
     21          1           0        2.853889   -1.179051   -0.128346
     22          1           0        1.682561   -1.272988   -1.442549
 ---------------------------------------------------------------------
 Rotational constants (GHZ):           2.3799134           1.3095979           1.2494133
 Standard basis: 6-311G(d,p) (5D, 7F)
 There are   262 symmetry adapted cartesian basis functions of A   symmetry.
 There are   252 symmetry adapted basis functions of A   symmetry.
   252 basis functions,   416 primitive gaussians,   262 cartesian basis functions
    36 alpha electrons       36 beta electrons
       nuclear repulsion energy       519.7475124475 Hartrees.
 NAtoms=   22 NActive=   22 NUniq=   22 SFac= 1.00D+00 NAtFMM=   60 NAOKFM=F Big=F
 Integral buffers will be    131072 words long.
 Raffenetti 2 integral format.
 Two-electron integral symmetry is turned on.
 Nuclear repulsion after empirical dispersion term =      519.7014647775 Hartrees.
 Force inversion solution in PCM.
 ------------------------------------------------------------------------------
 Polarizable Continuum Model (PCM)
 =================================
 Model                : PCM.
 Atomic radii         : UFF (Universal Force Field).
 Polarization charges : Total charges.
 Charge compensation  : None.
 Solution method      : Matrix inversion.
 Cavity type          : Scaled VdW (van der Waals Surface) (Alpha=1.100).
 Cavity algorithm     : GePol (No added spheres)
                        Default sphere list used, NSphG=   22.
                        Lebedev-Laikov grids with approx.  5.0 points / Ang**2.
                        Smoothing algorithm: York/Karplus (Gamma=1.0000).
                        Polarization charges: spherical gaussians, with
                                              point-specific exponents (IZeta= 3).
                        Self-potential: point-specific (ISelfS= 7).
                        Self-field    : sphere-specific E.n sum rule (ISelfD= 2).
 1st derivatives      : Analytical E(r).r(x)/FMM algorithm (CHGder, D1EAlg=3).
                        Cavity 1st derivative terms included.
 2nd derivatives      : Analytical E(r).r(xy)/FMM algorithm (CHGder, D2EAlg=3).
                        Cavity 2nd derivative terms included.
 Solvent              : Cis-Decalin, Eps=   2.213900 Eps(inf)=   2.193361
 ------------------------------------------------------------------------------
 One-electron integrals computed using PRISM.
 NBasis=   252 RedAO= T EigKep=  5.38D-04  NBF=   252
 NBsUse=   252 1.00D-06 EigRej= -1.00D+00 NBFU=   252
 ExpMin= 1.03D-01 ExpMax= 4.56D+03 ExpMxC= 6.82D+02 IAcc=3 IRadAn=         5 AccDes= 0.00D+00
 Harris functional with IExCor=  402 and IRadAn=       5 diagonalized for initial guess.
 HarFok:  IExCor=  402 AccDes= 0.00D+00 IRadAn=         5 IDoV= 1 UseB2=F ITyADJ=14
 ICtDFT=  3500011 ScaDFX=  1.000000  1.000000  1.000000  1.000000
 FoFCou: FMM=F IPFlag=           0 FMFlag=      100000 FMFlg1=           0
         NFxFlg=           0 DoJE=T BraDBF=F KetDBF=T FulRan=T
         wScrn=  0.000000 ICntrl=       500 IOpCl=  0 I1Cent=   200000004 NGrid=           0
         NMat0=    1 NMatS0=      1 NMatT0=    0 NMatD0=    1 NMtDS0=    0 NMtDT0=    0
 Petite list used in FoFCou.
 Requested convergence on RMS density matrix=1.00D-08 within 128 cycles.
 Requested convergence on MAX density matrix=1.00D-06.
 Requested convergence on             energy=1.00D-06.
 No special actions if energy rises.
 Inv3:  Mode=1 IEnd=     7077888.
 Iteration    1 A*A^-1 deviation from unit magnitude is 5.11D-15 for   1005.
 Iteration    1 A*A^-1 deviation from orthogonality  is 1.98D-15 for   1521   1434.
 Iteration    1 A^-1*A deviation from unit magnitude is 5.11D-15 for   1515.
 Iteration    1 A^-1*A deviation from orthogonality  is 2.05D-15 for   1525    954.
 Error on total polarization charges =  0.00630
 SCF Done:  E(RB3LYP) =  -388.321399302     A.U. after   12 cycles
            NFock= 12  Conv=0.40D-08     -V/T= 2.0046
 DoSCS=F DFT=T ScalE2(SS,OS)=  1.000000  1.000000
 Range of M.O.s used for correlation:     1   252
 NBasis=   252 NAE=    36 NBE=    36 NFC=     0 NFV=     0
 NROrb=    252 NOA=    36 NOB=    36 NVA=   216 NVB=   216
 Symmetrizing basis deriv contribution to polar:
 IMax=3 JMax=2 DiffMx= 0.00D+00
 G2DrvN: will do    23 centers at a time, making    1 passes.
 Calling FoFCou, ICntrl=  3107 FMM=F I1Cent=   0 AccDes= 0.00D+00.
 NEqPCM:  Using equilibrium solvation (IEInf=0, Eps=   2.2139, EpsInf=   2.1934)
 G2PCM: DoFxE=T DoFxN=T DoGrad=T DoDP/DQ/DG/TGxP=FFFF NFrqRd=   0 IEInf=0 SqF1=F DoCFld=F IF1Alg=4.
 End of G2Drv F.D. properties file   721 does not exist.
 End of G2Drv F.D. properties file   722 does not exist.
 End of G2Drv F.D. properties file   788 does not exist.
          IDoAtm=1111111111111111111111
 NEqPCM:  Using equilibrium solvation (IEInf=0, Eps=   2.2139, EpsInf=   2.1934)
          Differentiating once with respect to electric field.
                with respect to dipole field.
          Differentiating once with respect to nuclear coordinates.
 Keep R1 ints in memory in canonical form, NReq=612588626.
          There are    69 degrees of freedom in the 1st order CPHF.  IDoFFX=6 NUNeed=     3.
     66 vectors produced by pass  0 Test12= 1.13D-14 1.45D-09 XBig12= 2.25D+02 1.28D+01.
 AX will form    66 AO Fock derivatives at one time.
     66 vectors produced by pass  1 Test12= 1.13D-14 1.45D-09 XBig12= 2.87D+01 1.05D+00.
     66 vectors produced by pass  2 Test12= 1.13D-14 1.45D-09 XBig12= 2.98D-01 1.07D-01.
     66 vectors produced by pass  3 Test12= 1.13D-14 1.45D-09 XBig12= 8.51D-04 5.56D-03.
     66 vectors produced by pass  4 Test12= 1.13D-14 1.45D-09 XBig12= 1.58D-06 2.18D-04.
     47 vectors produced by pass  5 Test12= 1.13D-14 1.45D-09 XBig12= 1.70D-09 4.63D-06.
      7 vectors produced by pass  6 Test12= 1.13D-14 1.45D-09 XBig12= 1.67D-12 1.91D-07.
      3 vectors produced by pass  7 Test12= 1.13D-14 1.45D-09 XBig12= 1.62D-15 4.65D-09.
 InvSVY:  IOpt=1 It=  1 EMax= 1.60D-14
 Solved reduced A of dimension   387 with    69 vectors.
 Isotropic polarizability for W=    0.000000      129.59 Bohr**3.
 End of Minotr F.D. properties file   721 does not exist.
 End of Minotr F.D. properties file   722 does not exist.
 End of Minotr F.D. properties file   788 does not exist.

 **********************************************************************

            Population analysis using the SCF density.

 **********************************************************************

 Orbital symmetries:
       Occupied  (A) (A) (A) (A) (A) (A) (A) (A) (A) (A) (A) (A)
                 (A) (A) (A) (A) (A) (A) (A) (A) (A) (A) (A) (A)
                 (A) (A) (A) (A) (A) (A) (A) (A) (A) (A) (A) (A)
       Virtual   (A) (A) (A) (A) (A) (A) (A) (A) (A) (A) (A) (A)
                 (A) (A) (A) (A) (A) (A) (A) (A) (A) (A) (A) (A)
                 (A) (A) (A) (A) (A) (A) (A) (A) (A) (A) (A) (A)
                 (A) (A) (A) (A) (A) (A) (A) (A) (A) (A) (A) (A)
                 (A) (A) (A) (A) (A) (A) (A) (A) (A) (A) (A) (A)
                 (A) (A) (A) (A) (A) (A) (A) (A) (A) (A) (A) (A)
                 (A) (A) (A) (A) (A) (A) (A) (A) (A) (A) (A) (A)
                 (A) (A) (A) (A) (A) (A) (A) (A) (A) (A) (A) (A)
                 (A) (A) (A) (A) (A) (A) (A) (A) (A) (A) (A) (A)
                 (A) (A) (A) (A) (A) (A) (A) (A) (A) (A) (A) (A)
                 (A) (A) (A) (A) (A) (A) (A) (A) (A) (A) (A) (A)
                 (A) (A) (A) (A) (A) (A) (A) (A) (A) (A) (A) (A)
                 (A) (A) (A) (A) (A) (A) (A) (A) (A) (A) (A) (A)
                 (A) (A) (A) (A) (A) (A) (A) (A) (A) (A) (A) (A)
                 (A) (A) (A) (A) (A) (A) (A) (A) (A) (A) (A) (A)
                 (A) (A) (A) (A) (A) (A) (A) (A) (A) (A) (A) (A)
                 (A) (A) (A) (A) (A) (A) (A) (A) (A) (A) (A) (A)
                 (A) (A) (A) (A) (A) (A) (A) (A) (A) (A) (A) (A)
 The electronic state is 1-A.
 Alpha  occ. eigenvalues --  -10.17472 -10.17472 -10.16905 -10.16905 -10.16288
 Alpha  occ. eigenvalues --  -10.16288 -10.16044 -10.16043 -10.15834 -10.15832
 Alpha  occ. eigenvalues --   -0.86663  -0.84098  -0.71517  -0.70603  -0.69174
 Alpha  occ. eigenvalues --   -0.68610  -0.55578  -0.55055  -0.53194  -0.51676
 Alpha  occ. eigenvalues --   -0.51601  -0.50213  -0.44998  -0.42147  -0.39420
 Alpha  occ. eigenvalues --   -0.38267  -0.37449  -0.37067  -0.36253  -0.36178
 Alpha  occ. eigenvalues --   -0.35663  -0.34611  -0.31679  -0.26192  -0.25148
 Alpha  occ. eigenvalues --   -0.18739
 Alpha virt. eigenvalues --   -0.03256   0.01734   0.03532   0.04718   0.07356
 Alpha virt. eigenvalues --    0.07810   0.07844   0.09596   0.09765   0.10688
 Alpha virt. eigenvalues --    0.11055   0.11854   0.12737   0.15114   0.15147
 Alpha virt. eigenvalues --    0.17090   0.18703   0.19823   0.21860   0.23118
 Alpha virt. eigenvalues --    0.26970   0.27571   0.30688   0.31316   0.31856
 Alpha virt. eigenvalues --    0.32599   0.35485   0.38325   0.38370   0.39094
 Alpha virt. eigenvalues --    0.39790   0.40543   0.41085   0.42237   0.43357
 Alpha virt. eigenvalues --    0.44398   0.44714   0.45991   0.46466   0.49312
 Alpha virt. eigenvalues --    0.49948   0.52232   0.54987   0.55584   0.56374
 Alpha virt. eigenvalues --    0.56458   0.58846   0.59183   0.59902   0.59916
 Alpha virt. eigenvalues --    0.60289   0.61717   0.62002   0.63604   0.64088
 Alpha virt. eigenvalues --    0.64553   0.65555   0.66211   0.68746   0.70116
 Alpha virt. eigenvalues --    0.70404   0.71417   0.71428   0.73865   0.76388
 Alpha virt. eigenvalues --    0.79569   0.80507   0.83693   0.85771   0.87847
 Alpha virt. eigenvalues --    0.88158   0.91530   0.93149   0.98659   0.98746
 Alpha virt. eigenvalues --    1.04183   1.04659   1.05419   1.08442   1.13786
 Alpha virt. eigenvalues --    1.15208   1.15781   1.18536   1.21758   1.22230
 Alpha virt. eigenvalues --    1.25151   1.28927   1.33795   1.38808   1.40417
 Alpha virt. eigenvalues --    1.46902   1.47843   1.48654   1.49827   1.51639
 Alpha virt. eigenvalues --    1.52462   1.52901   1.54588   1.56192   1.57064
 Alpha virt. eigenvalues --    1.58486   1.59416   1.60474   1.60866   1.61264
 Alpha virt. eigenvalues --    1.63904   1.64198   1.66660   1.67627   1.70547
 Alpha virt. eigenvalues --    1.71354   1.73060   1.74483   1.76906   1.77881
 Alpha virt. eigenvalues --    1.78688   1.82149   1.82338   1.82519   1.84261
 Alpha virt. eigenvalues --    1.84879   1.86554   1.87919   1.88319   1.89120
 Alpha virt. eigenvalues --    1.91979   1.92269   1.94594   1.97784   1.97979
 Alpha virt. eigenvalues --    1.99438   1.99848   2.03175   2.04411   2.09124
 Alpha virt. eigenvalues --    2.12560   2.13121   2.15793   2.17638   2.18720
 Alpha virt. eigenvalues --    2.23065   2.23686   2.26819   2.31610   2.33155
 Alpha virt. eigenvalues --    2.34493   2.36768   2.36984   2.39506   2.41779
 Alpha virt. eigenvalues --    2.44477   2.45791   2.49698   2.51511   2.52583
 Alpha virt. eigenvalues --    2.53639   2.59582   2.59832   2.60531   2.62041
 Alpha virt. eigenvalues --    2.62732   2.67643   2.69210   2.70194   2.70800
 Alpha virt. eigenvalues --    2.71225   2.74353   2.74498   2.78039   2.78790
 Alpha virt. eigenvalues --    2.81400   2.84048   2.87670   2.92428   2.92925
 Alpha virt. eigenvalues --    2.93318   2.94038   2.96713   2.99972   3.05364
 Alpha virt. eigenvalues --    3.08035   3.09739   3.11318   3.18486   3.19588
 Alpha virt. eigenvalues --    3.27585   3.33623   3.34499   3.42848   3.43110
 Alpha virt. eigenvalues --    3.46885   3.48769   3.54856   3.59416   3.77397
 Alpha virt. eigenvalues --    3.78253   4.02698   4.03903   4.06117   4.08948
 Alpha virt. eigenvalues --    4.09052   4.11318   4.16307   4.18837   4.51508
 Alpha virt. eigenvalues --    4.54061  23.62933  23.74851  23.88509  23.89749
 Alpha virt. eigenvalues --   23.90086  23.97292  24.13637  24.14745  24.20890
 Alpha virt. eigenvalues --   24.21114
          Condensed to atoms (all electrons):
               1          2          3          4          5          6
     1  C    4.871361   0.454522  -0.077235  -0.008663   0.004795   0.569141
     2  C    0.454522   5.015316   0.517124  -0.051029  -0.047248  -0.088495
     3  C   -0.077235   0.517124   5.209745   0.081600  -0.051030  -0.094706
     4  C   -0.008663  -0.051029   0.081600   5.209745   0.517125  -0.013695
     5  C    0.004795  -0.047248  -0.051030   0.517125   5.015320   0.032679
     6  C    0.569141  -0.088495  -0.094706  -0.013695   0.032679   5.081737
     7  C   -0.014285   0.004796  -0.008662  -0.077235   0.454519  -0.010066
     8  C   -0.010065   0.032676  -0.013694  -0.094706  -0.088494  -0.002885
     9  C    0.000583  -0.012591  -0.032812   0.376187  -0.096373   0.000898
    10  C   -0.091027  -0.096373   0.376186  -0.032812  -0.012592   0.373287
    11  H    0.421092  -0.044658   0.006557  -0.000164   0.000013  -0.045067
    12  H   -0.037715   0.420637  -0.042676  -0.001626   0.000309   0.006236
    13  H    0.007863  -0.036487   0.410095  -0.015952   0.002982   0.005928
    14  H   -0.000085   0.002982  -0.015953   0.410095  -0.036487  -0.000230
    15  H   -0.000353   0.000309  -0.001626  -0.042676   0.420637   0.002572
    16  H   -0.038031   0.008349   0.005208   0.000270  -0.001505   0.417230
    17  H    0.002000   0.000013  -0.000164   0.006557  -0.044658   0.000738
    18  H    0.000097  -0.001505   0.000270   0.005208   0.008349   0.000030
    19  H   -0.000232   0.003163   0.005949  -0.029924  -0.001116  -0.000215
    20  H    0.000813  -0.003653  -0.003582  -0.042133   0.007817   0.000137
    21  H   -0.002208  -0.001116  -0.029924   0.005949   0.003163  -0.033695
    22  H    0.005462   0.007817  -0.042133  -0.003582  -0.003654  -0.035898
               7          8          9         10         11         12
     1  C   -0.014285  -0.010065   0.000583  -0.091027   0.421092  -0.037715
     2  C    0.004796   0.032676  -0.012591  -0.096373  -0.044658   0.420637
     3  C   -0.008662  -0.013694  -0.032812   0.376186   0.006557  -0.042676
     4  C   -0.077235  -0.094706   0.376187  -0.032812  -0.000164  -0.001626
     5  C    0.454519  -0.088494  -0.096373  -0.012592   0.000013   0.000309
     6  C   -0.010066  -0.002885   0.000898   0.373287  -0.045067   0.006236
     7  C    4.871359   0.569145  -0.091026   0.000583   0.002000  -0.000352
     8  C    0.569145   5.081730   0.373287   0.000898   0.000738   0.002572
     9  C   -0.091026   0.373287   4.889397   0.003314  -0.000085  -0.000022
    10  C    0.000583   0.000898   0.003314   4.889400   0.008823   0.007273
    11  H    0.002000   0.000738  -0.000085   0.008823   0.573159  -0.002722
    12  H   -0.000352   0.002572  -0.000022   0.007273  -0.002722   0.554536
    13  H   -0.000085  -0.000230  -0.002647  -0.031381  -0.000286  -0.004192
    14  H    0.007862   0.005928  -0.031380  -0.002647   0.000028  -0.000052
    15  H   -0.037715   0.006236   0.007273  -0.000022  -0.000044   0.000002
    16  H    0.000097   0.000030  -0.000003  -0.038250  -0.005079  -0.000319
    17  H    0.421092  -0.045067   0.008823  -0.000085   0.000135  -0.000044
    18  H   -0.038031   0.417230  -0.038250  -0.000003   0.000019   0.000261
    19  H   -0.002208  -0.033695   0.384490  -0.000229   0.000002   0.000099
    20  H    0.005462  -0.035898   0.408569   0.000502  -0.000013  -0.000020
    21  H   -0.000232  -0.000214  -0.000229   0.384490  -0.000477  -0.000392
    22  H    0.000813   0.000137   0.000502   0.408570  -0.000267  -0.000278
              13         14         15         16         17         18
     1  C    0.007863  -0.000085  -0.000353  -0.038031   0.002000   0.000097
     2  C   -0.036487   0.002982   0.000309   0.008349   0.000013  -0.001505
     3  C    0.410095  -0.015953  -0.001626   0.005208  -0.000164   0.000270
     4  C   -0.015952   0.410095  -0.042676   0.000270   0.006557   0.005208
     5  C    0.002982  -0.036487   0.420637  -0.001505  -0.044658   0.008349
     6  C    0.005928  -0.000230   0.002572   0.417230   0.000738   0.000030
     7  C   -0.000085   0.007862  -0.037715   0.000097   0.421092  -0.038031
     8  C   -0.000230   0.005928   0.006236   0.000030  -0.045067   0.417230
     9  C   -0.002647  -0.031380   0.007273  -0.000003   0.008823  -0.038250
    10  C   -0.031381  -0.002647  -0.000022  -0.038250  -0.000085  -0.000003
    11  H   -0.000286   0.000028  -0.000044  -0.005079   0.000135   0.000019
    12  H   -0.004192  -0.000052   0.000002  -0.000319  -0.000044   0.000261
    13  H    0.546735  -0.002638  -0.000052  -0.000298   0.000028   0.000019
    14  H   -0.002638   0.546735  -0.004192   0.000019  -0.000286  -0.000298
    15  H   -0.000052  -0.004192   0.554535   0.000262  -0.002722  -0.000319
    16  H   -0.000298   0.000019   0.000262   0.559656   0.000019  -0.000000
    17  H    0.000028  -0.000286  -0.002722   0.000019   0.573159  -0.005079
    18  H    0.000019  -0.000298  -0.000319  -0.000000  -0.005079   0.559656
    19  H   -0.000296  -0.001350  -0.000392   0.000001  -0.000477   0.000326
    20  H    0.001945  -0.000835  -0.000278  -0.000005  -0.000267  -0.001870
    21  H   -0.001350  -0.000296   0.000099   0.000326   0.000002   0.000001
    22  H   -0.000835   0.001945  -0.000020  -0.001870  -0.000013  -0.000005
              19         20         21         22
     1  C   -0.000232   0.000813  -0.002208   0.005462
     2  C    0.003163  -0.003653  -0.001116   0.007817
     3  C    0.005949  -0.003582  -0.029924  -0.042133
     4  C   -0.029924  -0.042133   0.005949  -0.003582
     5  C   -0.001116   0.007817   0.003163  -0.003654
     6  C   -0.000215   0.000137  -0.033695  -0.035898
     7  C   -0.002208   0.005462  -0.000232   0.000813
     8  C   -0.033695  -0.035898  -0.000214   0.000137
     9  C    0.384490   0.408569  -0.000229   0.000502
    10  C   -0.000229   0.000502   0.384490   0.408570
    11  H    0.000002  -0.000013  -0.000477  -0.000267
    12  H    0.000099  -0.000020  -0.000392  -0.000278
    13  H   -0.000296   0.001945  -0.001350  -0.000835
    14  H   -0.001350  -0.000835  -0.000296   0.001945
    15  H   -0.000392  -0.000278   0.000099  -0.000020
    16  H    0.000001  -0.000005   0.000326  -0.001870
    17  H   -0.000477  -0.000267   0.000002  -0.000013
    18  H    0.000326  -0.001870   0.000001  -0.000005
    19  H    0.573956  -0.031913   0.000003  -0.000056
    20  H   -0.031913   0.574731  -0.000056  -0.000016
    21  H    0.000003  -0.000056   0.573955  -0.031913
    22  H   -0.000056  -0.000016  -0.031913   0.574731
 Mulliken charges:
               1
     1  C   -0.057831
     2  C   -0.084550
     3  C   -0.198540
     4  C   -0.198540
     5  C   -0.084553
     6  C   -0.165661
     7  C   -0.057831
     8  C   -0.165659
     9  C   -0.147905
    10  C   -0.147905
    11  H    0.086296
    12  H    0.098485
    13  H    0.121133
    14  H    0.121134
    15  H    0.098486
    16  H    0.093894
    17  H    0.086296
    18  H    0.093894
    19  H    0.134115
    20  H    0.120563
    21  H    0.134115
    22  H    0.120563
 Sum of Mulliken charges =  -0.00000
 Mulliken charges with hydrogens summed into heavy atoms:
               1
     1  C    0.028466
     2  C    0.013935
     3  C   -0.077406
     4  C   -0.077406
     5  C    0.013933
     6  C   -0.071768
     7  C    0.028465
     8  C   -0.071766
     9  C    0.106773
    10  C    0.106773
 APT charges:
               1
     1  C   -0.012497
     2  C   -0.136258
     3  C    0.074203
     4  C    0.074196
     5  C   -0.136252
     6  C   -0.045643
     7  C   -0.012495
     8  C   -0.045649
     9  C    0.007215
    10  C    0.007213
    11  H    0.041351
    12  H    0.048814
    13  H    0.012067
    14  H    0.012067
    15  H    0.048814
    16  H    0.024464
    17  H    0.041350
    18  H    0.024466
    19  H   -0.021719
    20  H    0.008005
    21  H   -0.021719
    22  H    0.008005
 Sum of APT charges =   0.00000
 APT charges with hydrogens summed into heavy atoms:
               1
     1  C    0.028854
     2  C   -0.087444
     3  C    0.086271
     4  C    0.086263
     5  C   -0.087439
     6  C   -0.021179
     7  C    0.028856
     8  C   -0.021183
     9  C   -0.006499
    10  C   -0.006501
 Electronic spatial extent (au):  <R**2>=           1184.9188
 Charge=             -0.0000 electrons
 Dipole moment (field-independent basis, Debye):
    X=              0.0000    Y=             -0.6074    Z=             -0.0000  Tot=              0.6074
 Quadrupole moment (field-independent basis, Debye-Ang):
   XX=            -62.9132   YY=            -56.8507   ZZ=            -59.7275
   XY=              0.0000   XZ=             -4.1956   YZ=              0.0000
 Traceless Quadrupole moment (field-independent basis, Debye-Ang):
   XX=             -3.0828   YY=              2.9798   ZZ=              0.1030
   XY=              0.0000   XZ=             -4.1956   YZ=              0.0000
 Octapole moment (field-independent basis, Debye-Ang**2):
  XXX=             -0.0001  YYY=              1.5685  ZZZ=              0.0001  XYY=             -0.0000
  XXY=             -2.9425  XXZ=             -0.0000  XZZ=              0.0000  YZZ=              1.3772
  YYZ=             -0.0001  XYZ=             -0.7781
 Hexadecapole moment (field-independent basis, Debye-Ang**3):
 XXXX=           -910.4590 YYYY=           -389.3424 ZZZZ=           -349.9906 XXXY=              0.0000
 XXXZ=            -27.3524 YYYX=             -0.0001 YYYZ=              0.0001 ZZZX=            -18.7703
 ZZZY=             -0.0000 XXYY=           -212.7078 XXZZ=           -215.5923 YYZZ=           -123.5654
 XXYZ=              0.0003 YYXZ=             -1.8894 ZZXY=              0.0003
 N-N= 5.197014647775D+02 E-N=-1.940090031590D+03  KE= 3.865491323415D+02
  Exact polarizability: 152.450   0.000 119.587  -6.108  -0.000 116.747
 Approx polarizability: 220.796   0.001 177.516  -6.679  -0.001 191.981
 D2PCM: PCM CHGder 2nd derivatives, FixD1E=F FixD2E=F DoIter=F DoCFld=F I1PDM=0
 Calling FoFJK, ICntrl=    100127 FMM=F ISym2X=0 I1Cent= 0 IOpClX= 0 NMat=1 NMatS=1 NMatT=0.
 Full mass-weighted force constant matrix:
 Low frequencies --- -326.0512  -41.1301  -40.3675  -13.5233   -0.0006   -0.0005
 Low frequencies ---   -0.0005  126.7314  130.6888
 ******    1 imaginary frequencies (negative Signs) ****** 
 Diagonal vibrational polarizability:
        7.9766236       2.2824908       5.8709125
 Harmonic frequencies (cm**-1), IR intensities (KM/Mole), Raman scattering
 activities (A**4/AMU), depolarization ratios for plane and unpolarized
 incident light, reduced masses (AMU), force constants (mDyne/A),
 and normal coordinates:
                      1                      2                      3
                      A                      A                      A
 Frequencies --   -326.0511               126.5645               130.6442
 Red. masses --      8.9422                 3.3015                 4.3086
 Frc consts  --      0.5601                 0.0312                 0.0433
 IR Inten    --      0.1791                 0.0618                 0.5517
  Atom  AN      X      Y      Z        X      Y      Z        X      Y      Z
     1   6     0.03   0.04  -0.05     0.07   0.03  -0.13     0.04   0.06   0.01
     2   6     0.13  -0.06   0.05    -0.01   0.14  -0.04    -0.17   0.09  -0.10
     3   6     0.44  -0.02   0.34    -0.06   0.06   0.07    -0.12   0.08  -0.08
     4   6    -0.44  -0.02  -0.34     0.06   0.06  -0.07    -0.12  -0.08  -0.08
     5   6    -0.13  -0.06  -0.05     0.01   0.14   0.04    -0.17  -0.09  -0.10
     6   6     0.11   0.02   0.04     0.09  -0.12  -0.06     0.22   0.04   0.12
     7   6    -0.03   0.04   0.05    -0.07   0.03   0.13     0.04  -0.06   0.01
     8   6    -0.11   0.02  -0.04    -0.09  -0.12   0.06     0.22  -0.04   0.12
     9   6    -0.06   0.02  -0.04     0.00  -0.11  -0.09     0.02  -0.04   0.03
    10   6     0.06   0.02   0.04    -0.00  -0.11   0.09     0.02   0.04   0.03
    11   1    -0.08   0.04  -0.09     0.13   0.07  -0.24     0.09   0.06   0.04
    12   1    -0.02   0.02  -0.02    -0.03   0.26  -0.06    -0.20   0.09  -0.11
    13   1     0.04  -0.05   0.06    -0.14   0.11   0.16    -0.15   0.09  -0.08
    14   1    -0.04  -0.05  -0.06     0.14   0.11  -0.16    -0.15  -0.09  -0.08
    15   1     0.02   0.02   0.02     0.03   0.26   0.06    -0.20  -0.09  -0.11
    16   1     0.09  -0.01   0.01     0.15  -0.23  -0.10     0.38   0.01   0.21
    17   1     0.08   0.04   0.09    -0.13   0.07   0.24     0.09  -0.06   0.04
    18   1    -0.09  -0.01  -0.01    -0.15  -0.23   0.10     0.38  -0.01   0.21
    19   1    -0.16   0.01   0.22     0.04  -0.13  -0.16    -0.06   0.12   0.09
    20   1     0.15   0.02  -0.09    -0.01  -0.19  -0.13     0.04  -0.14  -0.02
    21   1     0.16   0.01  -0.22    -0.04  -0.13   0.16    -0.06  -0.12   0.09
    22   1    -0.15   0.02   0.09     0.01  -0.19   0.13     0.04   0.14  -0.02
                      4                      5                      6
                      A                      A                      A
 Frequencies --    179.5548               252.6829               300.5296
 Red. masses --      3.9969                 3.3762                 3.6369
 Frc consts  --      0.0759                 0.1270                 0.1935
 IR Inten    --      0.5065                 0.0831                 0.1210
  Atom  AN      X      Y      Z        X      Y      Z        X      Y      Z
     1   6     0.22  -0.02   0.10     0.16   0.06   0.06    -0.10   0.01  -0.11
     2   6     0.09  -0.01  -0.00     0.09   0.09   0.05    -0.07  -0.03  -0.14
     3   6    -0.02   0.03  -0.09    -0.06   0.09   0.01     0.06  -0.03  -0.12
     4   6     0.02   0.03   0.09    -0.06  -0.09   0.01    -0.06  -0.03   0.12
     5   6    -0.09  -0.01   0.00     0.09  -0.09   0.05     0.07  -0.03   0.14
     6   6     0.22   0.01   0.08    -0.03   0.06  -0.03     0.13   0.02  -0.01
     7   6    -0.22  -0.02  -0.10     0.16  -0.06   0.06     0.10   0.01   0.11
     8   6    -0.22   0.01  -0.08    -0.03  -0.06  -0.03    -0.13   0.02   0.01
     9   6    -0.03   0.01   0.05    -0.16  -0.06  -0.09    -0.18   0.02   0.01
    10   6     0.03   0.01  -0.05    -0.16   0.06  -0.09     0.18   0.02  -0.01
    11   1     0.35  -0.05   0.19     0.35   0.04   0.14    -0.26   0.01  -0.16
    12   1     0.07  -0.04  -0.01     0.19   0.08   0.11    -0.19  -0.03  -0.20
    13   1    -0.03   0.02  -0.11    -0.04   0.10   0.04     0.13  -0.04  -0.10
    14   1     0.03   0.02   0.11    -0.04  -0.10   0.04    -0.13  -0.04   0.10
    15   1    -0.07  -0.04   0.01     0.19  -0.08   0.11     0.19  -0.03   0.20
    16   1     0.32   0.01   0.16    -0.04   0.04  -0.06     0.19   0.05   0.06
    17   1    -0.35  -0.05  -0.19     0.35  -0.04   0.14     0.26   0.01   0.16
    18   1    -0.32   0.01  -0.16    -0.04  -0.04  -0.06    -0.19   0.05  -0.06
    19   1     0.03  -0.15   0.07    -0.14   0.02  -0.22    -0.14   0.03  -0.12
    20   1     0.01   0.13   0.10    -0.29  -0.11  -0.08    -0.31   0.03   0.04
    21   1    -0.03  -0.15  -0.07    -0.14  -0.02  -0.22     0.14   0.03   0.12
    22   1    -0.01   0.13  -0.10    -0.29   0.11  -0.08     0.31   0.03  -0.04
                      7                      8                      9
                      A                      A                      A
 Frequencies --    416.5850               445.0500               556.5656
 Red. masses --      1.9587                 1.7933                 2.6687
 Frc consts  --      0.2003                 0.2093                 0.4871
 IR Inten    --      0.0705                 0.5803                 1.4055
  Atom  AN      X      Y      Z        X      Y      Z        X      Y      Z
     1   6    -0.06   0.00  -0.02     0.07  -0.01   0.04    -0.12   0.04  -0.06
     2   6    -0.10   0.01  -0.04     0.01  -0.00  -0.02     0.16  -0.02   0.10
     3   6     0.00   0.01   0.02    -0.08   0.02  -0.07    -0.07   0.02  -0.03
     4   6    -0.00   0.01  -0.02    -0.08  -0.02  -0.07     0.07   0.02   0.03
     5   6     0.10   0.01   0.04     0.01   0.00  -0.02    -0.16  -0.02  -0.10
     6   6     0.06  -0.01   0.05    -0.08   0.02  -0.06     0.08  -0.01   0.07
     7   6     0.06   0.00   0.02     0.07   0.01   0.04     0.12   0.04   0.06
     8   6    -0.06  -0.01  -0.05    -0.08  -0.02  -0.06    -0.08  -0.01  -0.07
     9   6     0.11  -0.01   0.08     0.05  -0.01   0.07     0.01  -0.01  -0.02
    10   6    -0.11  -0.01  -0.08     0.05   0.01   0.07    -0.01  -0.01   0.02
    11   1    -0.09   0.01  -0.04     0.18  -0.03   0.12    -0.36   0.07  -0.20
    12   1    -0.20   0.04  -0.09    -0.02   0.01  -0.03     0.35  -0.06   0.20
    13   1    -0.06   0.00  -0.02    -0.13   0.01  -0.09    -0.00   0.01   0.00
    14   1     0.06   0.00   0.02    -0.13  -0.01  -0.09     0.00   0.01  -0.00
    15   1     0.20   0.04   0.09    -0.02  -0.01  -0.03    -0.35  -0.06  -0.20
    16   1     0.13  -0.02   0.10    -0.08   0.01  -0.06    -0.05  -0.01  -0.02
    17   1     0.09   0.01   0.04     0.18   0.03   0.12     0.36   0.07   0.20
    18   1    -0.13  -0.02  -0.10    -0.08  -0.01  -0.06     0.05  -0.01   0.02
    19   1     0.10  -0.23   0.35     0.02  -0.24   0.39     0.08  -0.20  -0.01
    20   1     0.37   0.16   0.11     0.36   0.18   0.10     0.06   0.13   0.04
    21   1    -0.10  -0.23  -0.35     0.02   0.24   0.39    -0.08  -0.20   0.01
    22   1    -0.37   0.16  -0.11     0.36  -0.18   0.10    -0.06   0.13  -0.04
                     10                     11                     12
                      A                      A                      A
 Frequencies --    585.4093               705.9323               706.0341
 Red. masses --      2.4903                 1.2701                 1.2003
 Frc consts  --      0.5028                 0.3729                 0.3525
 IR Inten    --      4.5758                 1.1632                83.5338
  Atom  AN      X      Y      Z        X      Y      Z        X      Y      Z
     1   6    -0.09   0.04  -0.06    -0.05  -0.01  -0.05    -0.05  -0.01  -0.04
     2   6     0.15  -0.03   0.06     0.01  -0.02   0.00     0.01  -0.01   0.00
     3   6    -0.12   0.03  -0.07    -0.00  -0.01   0.01     0.02  -0.01   0.02
     4   6    -0.12  -0.03  -0.07     0.00  -0.01  -0.01     0.02   0.01   0.02
     5   6     0.15   0.03   0.06    -0.01  -0.02  -0.00     0.01   0.01   0.00
     6   6     0.07   0.01   0.04    -0.01   0.02  -0.03    -0.01   0.01  -0.03
     7   6    -0.09  -0.04  -0.06     0.05  -0.01   0.05    -0.05   0.01  -0.04
     8   6     0.07  -0.01   0.04     0.01   0.02   0.03    -0.01  -0.01  -0.03
     9   6    -0.01  -0.01   0.02     0.06   0.03  -0.01    -0.04  -0.02  -0.00
    10   6    -0.01   0.01   0.02    -0.06   0.03   0.01    -0.04   0.02  -0.00
    11   1    -0.27   0.06  -0.16     0.18  -0.05   0.12     0.21  -0.05   0.13
    12   1     0.43  -0.09   0.21     0.16  -0.02   0.07     0.16  -0.02   0.08
    13   1    -0.09   0.02  -0.08    -0.01  -0.03  -0.03     0.04  -0.03  -0.01
    14   1    -0.09  -0.02  -0.08     0.01  -0.03   0.03     0.04   0.03  -0.01
    15   1     0.43   0.09   0.21    -0.16  -0.02  -0.07     0.16   0.02   0.08
    16   1    -0.03   0.00  -0.04     0.52  -0.04   0.28     0.52  -0.04   0.29
    17   1    -0.27  -0.06  -0.16    -0.18  -0.05  -0.12     0.21   0.05   0.13
    18   1    -0.03  -0.00  -0.04    -0.52  -0.04  -0.28     0.52   0.04   0.29
    19   1    -0.12   0.10   0.19     0.04   0.16  -0.12    -0.01  -0.14   0.06
    20   1     0.11  -0.06  -0.03    -0.06  -0.09  -0.04     0.04   0.09   0.04
    21   1    -0.12  -0.10   0.19    -0.04   0.16   0.12    -0.01   0.14   0.06
    22   1     0.11   0.06  -0.03     0.06  -0.09   0.04     0.04  -0.09   0.04
                     13                     14                     15
                      A                      A                      A
 Frequencies --    770.7103               774.5924               801.7915
 Red. masses --      1.3559                 1.2803                 3.3122
 Frc consts  --      0.4745                 0.4526                 1.2546
 IR Inten    --      0.5125                88.7063                 0.0221
  Atom  AN      X      Y      Z        X      Y      Z        X      Y      Z
     1   6     0.01  -0.03  -0.02     0.01  -0.00   0.01    -0.05  -0.03   0.03
     2   6     0.06  -0.05   0.05    -0.09   0.01  -0.05     0.00   0.05   0.14
     3   6    -0.03   0.02   0.00     0.02  -0.00   0.00     0.04   0.14  -0.04
     4   6     0.03   0.02  -0.00     0.02   0.00   0.00    -0.04   0.14   0.04
     5   6    -0.06  -0.05  -0.05    -0.09  -0.01  -0.05    -0.00   0.05  -0.14
     6   6     0.01   0.03  -0.04     0.01  -0.02   0.02    -0.10  -0.08   0.00
     7   6    -0.01  -0.03   0.02     0.01   0.00   0.01     0.05  -0.03  -0.03
     8   6    -0.01   0.03   0.04     0.01   0.02   0.02     0.10  -0.08  -0.00
     9   6     0.03   0.03  -0.02     0.00   0.01  -0.01    -0.15  -0.09   0.10
    10   6    -0.03   0.03   0.02     0.00  -0.01  -0.01     0.15  -0.09  -0.10
    11   1    -0.12  -0.03  -0.05     0.12  -0.01   0.04     0.12   0.01  -0.08
    12   1    -0.46   0.13  -0.23     0.49  -0.19   0.26    -0.14   0.00   0.07
    13   1    -0.32  -0.03  -0.25     0.22   0.03   0.16    -0.17   0.14  -0.14
    14   1     0.32  -0.03   0.25     0.22  -0.03   0.16     0.17   0.14   0.14
    15   1     0.46   0.13   0.23     0.49   0.19   0.26     0.14   0.00  -0.07
    16   1     0.01   0.03  -0.03    -0.18   0.00  -0.09     0.24   0.06   0.34
    17   1     0.12  -0.03   0.05     0.12   0.01   0.04    -0.12   0.01   0.08
    18   1    -0.01   0.03   0.03    -0.18  -0.00  -0.09    -0.24   0.06  -0.34
    19   1     0.04   0.06  -0.07    -0.01  -0.01   0.05    -0.19  -0.08   0.23
    20   1    -0.01  -0.04  -0.04     0.07   0.03  -0.02     0.03  -0.10   0.06
    21   1    -0.04   0.06   0.07    -0.01   0.01   0.05     0.19  -0.08  -0.23
    22   1     0.01  -0.04   0.04     0.07  -0.03  -0.02    -0.03  -0.10  -0.06
                     16                     17                     18
                      A                      A                      A
 Frequencies --    818.6721               827.5057               836.9676
 Red. masses --      4.3168                 5.1983                 3.9393
 Frc consts  --      1.7046                 2.0973                 1.6259
 IR Inten    --      0.4181                21.7028                 1.8343
  Atom  AN      X      Y      Z        X      Y      Z        X      Y      Z
     1   6     0.07  -0.01  -0.05     0.02  -0.25  -0.07    -0.01   0.21   0.06
     2   6     0.02  -0.08  -0.12    -0.13  -0.01   0.20     0.15   0.01  -0.12
     3   6    -0.03  -0.18   0.09    -0.04   0.10   0.06     0.02  -0.08  -0.06
     4   6    -0.03   0.18   0.09    -0.04  -0.10   0.06    -0.02  -0.08   0.06
     5   6     0.02   0.08  -0.12    -0.13   0.01   0.20    -0.15   0.01   0.12
     6   6     0.11   0.12  -0.05     0.12   0.02  -0.13    -0.12  -0.01   0.09
     7   6     0.07   0.01  -0.05     0.02   0.25  -0.07     0.01   0.21  -0.06
     8   6     0.11  -0.12  -0.05     0.12  -0.02  -0.13     0.12  -0.01  -0.09
     9   6    -0.14  -0.12   0.13     0.05  -0.13  -0.05     0.02  -0.12  -0.03
    10   6    -0.14   0.12   0.13     0.05   0.13  -0.05    -0.02  -0.12   0.03
    11   1    -0.20  -0.06   0.10    -0.04  -0.21  -0.20    -0.00   0.19   0.12
    12   1     0.03   0.11  -0.13    -0.03   0.17   0.23    -0.26  -0.04  -0.33
    13   1     0.15  -0.22   0.08     0.05  -0.02  -0.20    -0.12   0.01   0.10
    14   1     0.15   0.22   0.08     0.05   0.02  -0.20     0.12   0.01  -0.10
    15   1     0.03  -0.11  -0.13    -0.03  -0.17   0.23     0.26  -0.04   0.33
    16   1    -0.11  -0.02  -0.31    -0.12   0.25  -0.11     0.19  -0.20   0.15
    17   1    -0.20   0.06   0.10    -0.04   0.21  -0.20     0.00   0.19  -0.12
    18   1    -0.11   0.02  -0.31    -0.12  -0.25  -0.11    -0.19  -0.20  -0.15
    19   1    -0.14  -0.13   0.14    -0.01  -0.04   0.03    -0.06  -0.03   0.08
    20   1    -0.06  -0.10   0.12    -0.00   0.03   0.04     0.01   0.01   0.03
    21   1    -0.14   0.13   0.14    -0.01   0.04   0.03     0.06  -0.03  -0.08
    22   1    -0.06   0.10   0.12    -0.00  -0.03   0.04    -0.01   0.01  -0.03
                     19                     20                     21
                      A                      A                      A
 Frequencies --    891.0606               909.6016               918.5449
 Red. masses --      1.8529                 1.6860                 1.3484
 Frc consts  --      0.8668                 0.8219                 0.6703
 IR Inten    --     15.1391                11.5617                 0.9480
  Atom  AN      X      Y      Z        X      Y      Z        X      Y      Z
     1   6     0.01  -0.03  -0.01    -0.01  -0.01   0.02     0.02   0.01  -0.01
     2   6     0.03   0.01   0.02     0.02   0.01   0.02    -0.04  -0.03  -0.05
     3   6    -0.09  -0.09   0.05     0.06   0.04  -0.04    -0.01   0.01   0.01
     4   6     0.09  -0.09  -0.05     0.06  -0.04  -0.04     0.01   0.01  -0.01
     5   6    -0.03   0.01  -0.02     0.02  -0.01   0.02     0.04  -0.03   0.05
     6   6    -0.02   0.06  -0.05     0.03  -0.08   0.05    -0.01   0.06  -0.03
     7   6    -0.01  -0.03   0.01    -0.01   0.01   0.02    -0.02   0.01   0.01
     8   6     0.02   0.06   0.05     0.03   0.08   0.05     0.01   0.06   0.03
     9   6    -0.09   0.02  -0.03    -0.11  -0.04  -0.05    -0.04  -0.04  -0.04
    10   6     0.09   0.02   0.03    -0.11   0.04  -0.05     0.04  -0.04   0.04
    11   1    -0.02  -0.06   0.08    -0.04   0.03  -0.12    -0.06  -0.01   0.07
    12   1    -0.06   0.29  -0.05    -0.23  -0.02  -0.11     0.28  -0.16   0.12
    13   1     0.13  -0.05   0.27     0.40   0.00   0.02    -0.52   0.02  -0.18
    14   1    -0.13  -0.05  -0.27     0.40  -0.00   0.02     0.52   0.02   0.18
    15   1     0.06   0.29   0.05    -0.23   0.02  -0.11    -0.28  -0.16  -0.12
    16   1     0.15   0.09   0.09    -0.03  -0.13  -0.03    -0.00   0.07  -0.02
    17   1     0.02  -0.06  -0.08    -0.04  -0.03  -0.12     0.06  -0.01  -0.07
    18   1    -0.15   0.09  -0.09    -0.03   0.13  -0.03     0.00   0.07   0.02
    19   1    -0.17  -0.09   0.33    -0.18  -0.14   0.30    -0.06  -0.12   0.11
    20   1     0.19   0.21   0.01     0.23   0.10  -0.04     0.14   0.01  -0.05
    21   1     0.17  -0.09  -0.33    -0.18   0.14   0.30     0.06  -0.12  -0.11
    22   1    -0.19   0.21  -0.01     0.23  -0.10  -0.04    -0.14   0.01   0.05
                     22                     23                     24
                      A                      A                      A
 Frequencies --    948.0811               948.2411               955.2673
 Red. masses --      1.4681                 1.6916                 1.3799
 Frc consts  --      0.7775                 0.8962                 0.7419
 IR Inten    --      1.5437                 5.6798                 8.1302
  Atom  AN      X      Y      Z        X      Y      Z        X      Y      Z
     1   6     0.09  -0.01   0.03    -0.07  -0.01  -0.00    -0.07   0.02  -0.06
     2   6    -0.02   0.00  -0.00     0.04   0.01  -0.01     0.01  -0.01   0.02
     3   6     0.02   0.00  -0.03    -0.04  -0.02   0.04     0.01   0.00  -0.02
     4   6    -0.02   0.00   0.03    -0.04   0.02   0.04     0.01  -0.00  -0.02
     5   6     0.02   0.00   0.00     0.04  -0.01  -0.01     0.01   0.01   0.02
     6   6    -0.05  -0.04  -0.02     0.06   0.07   0.01     0.02  -0.04   0.02
     7   6    -0.09  -0.01  -0.03    -0.07   0.01  -0.00    -0.07  -0.02  -0.06
     8   6     0.05  -0.04   0.02     0.06  -0.07   0.01     0.02   0.04   0.02
     9   6     0.01   0.05  -0.05     0.01   0.07  -0.09     0.01  -0.04   0.05
    10   6    -0.01   0.05   0.05     0.01  -0.07  -0.09     0.01   0.04   0.05
    11   1    -0.42   0.08  -0.34     0.16  -0.09   0.29     0.52  -0.05   0.22
    12   1     0.08  -0.06   0.05    -0.11   0.16  -0.10    -0.09   0.01  -0.03
    13   1     0.10  -0.05  -0.12     0.06   0.07   0.31     0.00  -0.04  -0.13
    14   1    -0.10  -0.05   0.12     0.06  -0.07   0.31     0.00   0.04  -0.13
    15   1    -0.08  -0.06  -0.05    -0.11  -0.16  -0.10    -0.09  -0.01  -0.03
    16   1     0.26  -0.19   0.09    -0.18   0.29   0.02    -0.19  -0.14  -0.19
    17   1     0.42   0.08   0.34     0.16   0.09   0.29     0.52   0.05   0.22
    18   1    -0.26  -0.19  -0.09    -0.18  -0.29   0.02    -0.19   0.14  -0.19
    19   1    -0.02   0.04   0.06    -0.05   0.05   0.12     0.02   0.04  -0.06
    20   1     0.08   0.13  -0.03     0.15   0.19  -0.06    -0.08  -0.16   0.01
    21   1     0.02   0.04  -0.06    -0.05  -0.05   0.12     0.02  -0.04  -0.06
    22   1    -0.08   0.13   0.03     0.15  -0.19  -0.06    -0.08   0.16   0.01
                     25                     26                     27
                      A                      A                      A
 Frequencies --    960.4723               982.7009               984.8375
 Red. masses --      1.6404                 1.7605                 1.5515
 Frc consts  --      0.8916                 1.0017                 0.8866
 IR Inten    --      0.0204                27.1299                 2.3185
  Atom  AN      X      Y      Z        X      Y      Z        X      Y      Z
     1   6     0.04  -0.01   0.05     0.01  -0.00  -0.01    -0.01  -0.02   0.02
     2   6     0.00   0.02  -0.02     0.00   0.02   0.00     0.01  -0.01   0.00
     3   6    -0.02  -0.02   0.05    -0.07  -0.08   0.06     0.04   0.06  -0.06
     4   6     0.02  -0.02  -0.05    -0.07   0.08   0.06    -0.04   0.06   0.06
     5   6    -0.00   0.02   0.02     0.00  -0.02   0.00    -0.01  -0.01  -0.00
     6   6     0.02   0.07  -0.01    -0.02  -0.07   0.05     0.01   0.06  -0.05
     7   6    -0.04  -0.01  -0.05     0.01   0.00  -0.01     0.01  -0.02  -0.02
     8   6    -0.02   0.07   0.01    -0.02   0.07   0.05    -0.01   0.06   0.05
     9   6     0.02  -0.08   0.10     0.04  -0.06  -0.07     0.02  -0.05  -0.07
    10   6    -0.02  -0.08  -0.10     0.04   0.06  -0.07    -0.02  -0.05   0.07
    11   1    -0.42   0.02  -0.11     0.05   0.04  -0.15    -0.09  -0.05   0.14
    12   1     0.04   0.07   0.00     0.04   0.21   0.01    -0.09  -0.07  -0.04
    13   1    -0.05   0.05   0.22    -0.10  -0.03   0.18     0.35   0.03  -0.01
    14   1     0.05   0.05  -0.22    -0.10   0.03   0.18    -0.35   0.03   0.01
    15   1    -0.04   0.07  -0.00     0.04  -0.21   0.01     0.09  -0.07   0.04
    16   1     0.06   0.26   0.16     0.02  -0.12   0.04     0.04   0.14   0.02
    17   1     0.42   0.02   0.11     0.05  -0.04  -0.15     0.09  -0.05  -0.14
    18   1    -0.06   0.26  -0.16     0.02   0.12   0.04    -0.04   0.14  -0.02
    19   1     0.05   0.06  -0.14     0.14  -0.28  -0.10     0.10  -0.28  -0.05
    20   1    -0.18  -0.26   0.05     0.28  -0.30  -0.24     0.29  -0.24  -0.22
    21   1    -0.05   0.06   0.14     0.14   0.28  -0.10    -0.10  -0.28   0.05
    22   1     0.18  -0.26  -0.05     0.28   0.30  -0.24    -0.29  -0.24   0.22
                     28                     29                     30
                      A                      A                      A
 Frequencies --   1002.9329              1072.8255              1074.4769
 Red. masses --      1.4453                 1.5937                 1.5672
 Frc consts  --      0.8566                 1.0807                 1.0660
 IR Inten    --     14.5044                 0.1987                 4.0408
  Atom  AN      X      Y      Z        X      Y      Z        X      Y      Z
     1   6     0.00  -0.05   0.01    -0.03  -0.09   0.03    -0.03  -0.08   0.03
     2   6     0.03  -0.00  -0.02     0.04   0.06  -0.07     0.03   0.06  -0.07
     3   6    -0.06   0.03  -0.04     0.04   0.04  -0.01     0.05   0.04  -0.01
     4   6    -0.06  -0.03  -0.04    -0.04   0.04   0.01     0.05  -0.04  -0.01
     5   6     0.03   0.00  -0.02    -0.04   0.06   0.07     0.03  -0.06  -0.07
     6   6    -0.05  -0.02  -0.03    -0.02  -0.05   0.03    -0.01  -0.04   0.03
     7   6     0.00   0.05   0.01     0.03  -0.09  -0.03    -0.03   0.08   0.03
     8   6    -0.05   0.02  -0.03     0.02  -0.05  -0.03    -0.01   0.04   0.03
     9   6     0.05  -0.03   0.05     0.01   0.02  -0.01    -0.02  -0.02   0.01
    10   6     0.05   0.03   0.05    -0.01   0.02   0.01    -0.02   0.02   0.01
    11   1    -0.06  -0.08   0.08    -0.24  -0.20   0.36    -0.24  -0.18   0.33
    12   1    -0.04   0.05  -0.07     0.18   0.42  -0.05     0.22   0.40  -0.01
    13   1     0.43   0.10   0.34    -0.08   0.04  -0.08    -0.17   0.02  -0.16
    14   1     0.43  -0.10   0.34     0.08   0.04   0.08    -0.17  -0.02  -0.16
    15   1    -0.04  -0.05  -0.07    -0.18   0.42   0.05     0.22  -0.40  -0.01
    16   1     0.12  -0.03   0.07    -0.03  -0.10  -0.02    -0.05  -0.08  -0.02
    17   1    -0.06   0.08   0.08     0.25  -0.20  -0.36    -0.24   0.18   0.33
    18   1     0.12   0.03   0.07     0.03  -0.10   0.02    -0.05   0.08  -0.02
    19   1    -0.02   0.23  -0.06     0.02   0.01  -0.03    -0.01  -0.04   0.01
    20   1    -0.10  -0.24  -0.02    -0.01   0.07   0.02    -0.02  -0.02   0.01
    21   1    -0.02  -0.23  -0.06    -0.02   0.01   0.03    -0.01   0.04   0.01
    22   1    -0.10   0.24  -0.02     0.01   0.07  -0.02    -0.02   0.02   0.01
                     31                     32                     33
                      A                      A                      A
 Frequencies --   1094.7501              1097.4350              1116.4514
 Red. masses --      1.2720                 1.1724                 1.3456
 Frc consts  --      0.8982                 0.8319                 0.9882
 IR Inten    --      0.0050                 0.3099                 1.7815
  Atom  AN      X      Y      Z        X      Y      Z        X      Y      Z
     1   6    -0.01  -0.04   0.00    -0.02  -0.02   0.01     0.01  -0.06  -0.03
     2   6     0.02  -0.04  -0.03     0.01  -0.03  -0.01     0.03  -0.00  -0.06
     3   6    -0.01   0.07   0.01     0.00   0.06   0.01     0.01   0.01   0.00
     4   6     0.01   0.07  -0.01     0.00  -0.06   0.01    -0.01   0.01  -0.00
     5   6    -0.02  -0.04   0.03     0.01   0.03  -0.01    -0.03  -0.00   0.06
     6   6    -0.00  -0.02  -0.02     0.04  -0.01  -0.02    -0.05  -0.02   0.04
     7   6     0.01  -0.04  -0.00    -0.02   0.02   0.01    -0.01  -0.06   0.03
     8   6     0.00  -0.02   0.02     0.04   0.01  -0.02     0.05  -0.02  -0.04
     9   6    -0.00   0.03  -0.01    -0.01  -0.02  -0.01     0.01   0.03  -0.03
    10   6     0.00   0.03   0.01    -0.01   0.02  -0.01    -0.01   0.03   0.03
    11   1    -0.08  -0.07   0.09    -0.12  -0.06   0.15     0.19   0.02  -0.28
    12   1    -0.11  -0.35  -0.07    -0.08  -0.33  -0.03     0.03   0.01  -0.07
    13   1    -0.09   0.27   0.45    -0.23   0.22   0.30    -0.05   0.04   0.05
    14   1     0.09   0.27  -0.45    -0.23  -0.22   0.30     0.05   0.04  -0.05
    15   1     0.11  -0.35   0.07    -0.08   0.33  -0.03    -0.03   0.01   0.07
    16   1     0.06  -0.12  -0.06     0.05  -0.21  -0.17    -0.12   0.38   0.31
    17   1     0.08  -0.07  -0.09    -0.12   0.06   0.15    -0.19   0.02   0.28
    18   1    -0.06  -0.12   0.06     0.05   0.21  -0.17     0.12   0.38  -0.31
    19   1    -0.02   0.05   0.03     0.11  -0.24  -0.09     0.14  -0.19  -0.14
    20   1    -0.02   0.11   0.04    -0.00   0.03   0.02     0.00   0.15   0.02
    21   1     0.02   0.05  -0.03     0.11   0.24  -0.09    -0.14  -0.19   0.14
    22   1     0.02   0.11  -0.04    -0.00  -0.03   0.02    -0.00   0.15  -0.02
                     34                     35                     36
                      A                      A                      A
 Frequencies --   1123.1377              1133.5780              1150.8432
 Red. masses --      1.4413                 1.1769                 1.1862
 Frc consts  --      1.0712                 0.8910                 0.9256
 IR Inten    --      3.6399                 5.0494                 4.9204
  Atom  AN      X      Y      Z        X      Y      Z        X      Y      Z
     1   6    -0.00   0.07   0.03    -0.01  -0.03  -0.01     0.00  -0.02  -0.01
     2   6    -0.04   0.01   0.06     0.02   0.00  -0.03     0.00   0.00  -0.03
     3   6    -0.01  -0.02   0.01    -0.01   0.01  -0.03     0.05   0.01   0.05
     4   6    -0.01   0.02   0.01     0.01   0.01   0.03     0.05  -0.01   0.05
     5   6    -0.04  -0.01   0.06    -0.02   0.00   0.03     0.00  -0.00  -0.03
     6   6     0.01   0.02  -0.06     0.03  -0.02   0.05    -0.03  -0.00  -0.02
     7   6    -0.00  -0.07   0.03     0.01  -0.03   0.01     0.00   0.02  -0.01
     8   6     0.01  -0.02  -0.06    -0.03  -0.02  -0.05    -0.03   0.00  -0.02
     9   6     0.03   0.03  -0.04     0.02   0.00  -0.03    -0.00  -0.03  -0.01
    10   6     0.03  -0.03  -0.04    -0.02   0.00   0.03    -0.00   0.03  -0.01
    11   1    -0.17  -0.01   0.30     0.03   0.00  -0.12     0.05  -0.01  -0.03
    12   1    -0.02   0.08   0.08     0.05   0.01  -0.02    -0.02  -0.19  -0.02
    13   1     0.12  -0.10  -0.11    -0.00   0.03   0.03    -0.28   0.06   0.04
    14   1     0.12   0.10  -0.11     0.00   0.03  -0.03    -0.28  -0.06   0.04
    15   1    -0.02  -0.08   0.08    -0.05   0.01   0.02    -0.02   0.19  -0.02
    16   1     0.17  -0.38  -0.27    -0.11   0.13   0.07     0.01   0.05   0.05
    17   1    -0.17   0.01   0.30    -0.03   0.00   0.12     0.05   0.01  -0.03
    18   1     0.17   0.38  -0.27     0.11   0.13  -0.07     0.01  -0.05   0.05
    19   1    -0.06   0.17   0.06    -0.24   0.43   0.25    -0.25   0.34   0.27
    20   1     0.13  -0.06  -0.12     0.18  -0.25  -0.19     0.14  -0.26  -0.15
    21   1    -0.06  -0.17   0.06     0.24   0.43  -0.25    -0.25  -0.34   0.27
    22   1     0.13   0.06  -0.12    -0.18  -0.25   0.19     0.14   0.26  -0.15
                     37                     38                     39
                      A                      A                      A
 Frequencies --   1277.4653              1281.4279              1308.4638
 Red. masses --      1.6697                 1.6732                 1.6100
 Frc consts  --      1.6054                 1.6187                 1.6240
 IR Inten    --      4.5335                 2.5324                 1.2960
  Atom  AN      X      Y      Z        X      Y      Z        X      Y      Z
     1   6    -0.01   0.02   0.03     0.01  -0.02  -0.03    -0.02  -0.04   0.03
     2   6     0.01  -0.03  -0.02    -0.01   0.03   0.03    -0.02  -0.03   0.03
     3   6    -0.02  -0.03   0.02     0.02   0.02  -0.02     0.06  -0.01  -0.08
     4   6    -0.02   0.03   0.02    -0.02   0.02   0.02    -0.06  -0.01   0.08
     5   6     0.01   0.03  -0.02     0.01   0.03  -0.03     0.02  -0.03  -0.03
     6   6    -0.01  -0.03   0.02     0.01   0.03  -0.03    -0.00   0.09   0.01
     7   6    -0.01  -0.02   0.03    -0.01  -0.02   0.03     0.02  -0.04  -0.03
     8   6    -0.01   0.03   0.02    -0.01   0.03   0.03     0.00   0.09  -0.01
     9   6     0.07  -0.12  -0.07     0.07  -0.12  -0.07     0.03  -0.03  -0.02
    10   6     0.07   0.12  -0.07    -0.07  -0.12   0.07    -0.03  -0.03   0.02
    11   1     0.05   0.06  -0.09    -0.04  -0.06   0.08     0.19   0.07  -0.31
    12   1     0.05   0.09  -0.02    -0.05  -0.10   0.02     0.07   0.35   0.04
    13   1    -0.09   0.02   0.11     0.10  -0.02  -0.11    -0.17   0.17   0.27
    14   1    -0.09  -0.02   0.11    -0.10  -0.02   0.11     0.17   0.17  -0.27
    15   1     0.05  -0.09  -0.02     0.05  -0.10  -0.02    -0.07   0.35  -0.04
    16   1     0.03  -0.18  -0.06    -0.03   0.17   0.05     0.07  -0.21  -0.17
    17   1     0.05  -0.06  -0.09     0.04  -0.06  -0.08    -0.19   0.07   0.31
    18   1     0.03   0.18  -0.06     0.03   0.17  -0.05    -0.07  -0.21   0.17
    19   1    -0.13   0.22   0.12    -0.13   0.22   0.12     0.02  -0.01  -0.02
    20   1    -0.25   0.42   0.26    -0.25   0.42   0.26    -0.03   0.04   0.03
    21   1    -0.13  -0.22   0.12     0.13   0.22  -0.12    -0.02  -0.01   0.02
    22   1    -0.25  -0.42   0.26     0.25   0.42  -0.26     0.03   0.04  -0.03
                     40                     41                     42
                      A                      A                      A
 Frequencies --   1308.6222              1396.7164              1423.1126
 Red. masses --      1.6028                 3.4648                 2.1459
 Frc consts  --      1.6171                 3.9824                 2.5606
 IR Inten    --      2.0218                14.0314                 9.5835
  Atom  AN      X      Y      Z        X      Y      Z        X      Y      Z
     1   6     0.02   0.04  -0.03    -0.07  -0.06   0.09    -0.06  -0.10   0.08
     2   6     0.02   0.04  -0.03     0.04   0.22   0.03     0.05   0.10  -0.07
     3   6    -0.06   0.01   0.08     0.06  -0.15  -0.05    -0.05   0.01   0.07
     4   6    -0.06  -0.01   0.08    -0.06  -0.15   0.05    -0.05  -0.01   0.07
     5   6     0.02  -0.04  -0.03    -0.04   0.22  -0.03     0.05  -0.10  -0.07
     6   6     0.00  -0.09  -0.01     0.05  -0.02  -0.07     0.00   0.08   0.01
     7   6     0.02  -0.04  -0.03     0.07  -0.06  -0.09    -0.06   0.10   0.08
     8   6     0.00   0.09  -0.01    -0.05  -0.02   0.07     0.00  -0.08   0.01
     9   6     0.03  -0.04  -0.02     0.03   0.06  -0.03     0.01   0.02  -0.01
    10   6     0.03   0.04  -0.02    -0.03   0.06   0.03     0.01  -0.02  -0.01
    11   1    -0.18  -0.07   0.31     0.04  -0.01  -0.08     0.18   0.01  -0.31
    12   1    -0.07  -0.36  -0.04    -0.11  -0.43   0.02    -0.01  -0.27  -0.08
    13   1     0.15  -0.16  -0.27    -0.30  -0.06   0.06     0.14  -0.15  -0.26
    14   1     0.15   0.16  -0.27     0.30  -0.06  -0.06     0.14   0.15  -0.26
    15   1    -0.07   0.36  -0.04     0.11  -0.43  -0.02    -0.01   0.27  -0.08
    16   1    -0.07   0.21   0.16     0.01   0.06  -0.04     0.08  -0.25  -0.20
    17   1    -0.18   0.07   0.31    -0.04  -0.01   0.08     0.18  -0.01  -0.31
    18   1    -0.07  -0.21   0.16    -0.01   0.06   0.04     0.08   0.25  -0.20
    19   1     0.02  -0.02  -0.02     0.05  -0.17   0.14     0.04   0.04  -0.09
    20   1    -0.03   0.05   0.03    -0.11  -0.12  -0.08     0.06   0.04  -0.02
    21   1     0.02   0.02  -0.02    -0.05  -0.17  -0.14     0.04  -0.04  -0.09
    22   1    -0.03  -0.05   0.03     0.11  -0.12   0.08     0.06  -0.04  -0.02
                     43                     44                     45
                      A                      A                      A
 Frequencies --   1428.8067              1444.4679              1458.4805
 Red. masses --      2.1389                 2.0925                 1.1293
 Frc consts  --      2.5727                 2.5724                 1.4153
 IR Inten    --      1.5424                 4.4411                 4.9566
  Atom  AN      X      Y      Z        X      Y      Z        X      Y      Z
     1   6    -0.04  -0.09   0.05    -0.03  -0.00   0.05    -0.01  -0.01   0.01
     2   6     0.05   0.04  -0.08     0.00   0.11   0.04     0.01   0.04   0.01
     3   6    -0.06   0.05   0.09     0.02  -0.10  -0.08     0.01  -0.02  -0.00
     4   6     0.06   0.05  -0.09     0.02   0.10  -0.08    -0.01  -0.02   0.00
     5   6    -0.05   0.04   0.08     0.00  -0.11   0.04    -0.01   0.04  -0.01
     6   6    -0.02   0.10   0.04     0.03  -0.04  -0.06     0.01   0.01  -0.00
     7   6     0.04  -0.09  -0.05    -0.03   0.00   0.05     0.01  -0.01  -0.01
     8   6     0.02   0.10  -0.04     0.03   0.04  -0.06    -0.01   0.01   0.00
     9   6    -0.02  -0.04   0.02    -0.04  -0.06   0.05    -0.03  -0.03   0.03
    10   6     0.02  -0.04  -0.02    -0.04   0.06   0.05     0.03  -0.03  -0.03
    11   1     0.17   0.00  -0.29    -0.01   0.01   0.02     0.00  -0.01  -0.01
    12   1     0.01  -0.19  -0.10    -0.04  -0.12   0.05    -0.03  -0.08   0.00
    13   1     0.21  -0.14  -0.29    -0.12   0.01   0.15    -0.03  -0.02  -0.00
    14   1    -0.21  -0.14   0.29    -0.12  -0.01   0.15     0.03  -0.02   0.00
    15   1    -0.01  -0.19   0.10    -0.04   0.12   0.05     0.03  -0.08  -0.00
    16   1     0.09  -0.29  -0.19    -0.02   0.13   0.03     0.01  -0.02  -0.02
    17   1    -0.17   0.00   0.29    -0.01  -0.01   0.02    -0.00  -0.01   0.01
    18   1    -0.08  -0.29   0.19    -0.02  -0.13   0.03    -0.01  -0.02   0.02
    19   1    -0.04  -0.03   0.06     0.01   0.24  -0.38     0.03   0.26  -0.41
    20   1    -0.07  -0.02   0.04     0.35   0.20   0.08     0.45   0.22   0.03
    21   1     0.04  -0.03  -0.06     0.01  -0.24  -0.38    -0.03   0.26   0.41
    22   1     0.07  -0.02  -0.04     0.35  -0.20   0.08    -0.45   0.22  -0.03
                     46                     47                     48
                      A                      A                      A
 Frequencies --   1464.8650              1558.4199              1570.3928
 Red. masses --      1.6205                 4.3031                 4.5552
 Frc consts  --      2.0488                 6.1574                 6.6188
 IR Inten    --      9.1109                 5.4216                 0.6587
  Atom  AN      X      Y      Z        X      Y      Z        X      Y      Z
     1   6     0.03   0.01  -0.04    -0.10   0.08   0.21     0.12  -0.07  -0.24
     2   6    -0.00  -0.10  -0.03     0.00  -0.12  -0.07    -0.02   0.09   0.07
     3   6    -0.01   0.08   0.05    -0.01   0.07   0.06     0.02  -0.05  -0.05
     4   6    -0.01  -0.08   0.05    -0.01  -0.07   0.06    -0.02  -0.05   0.05
     5   6    -0.00   0.10  -0.03     0.00   0.12  -0.07     0.02   0.09  -0.07
     6   6    -0.03   0.02   0.04     0.10  -0.11  -0.19    -0.10   0.12   0.20
     7   6     0.03  -0.01  -0.04    -0.10  -0.08   0.21    -0.12  -0.07   0.24
     8   6    -0.03  -0.02   0.04     0.10   0.11  -0.19     0.10   0.12  -0.20
     9   6    -0.03  -0.02   0.02    -0.01   0.01   0.02    -0.01   0.00   0.02
    10   6    -0.03   0.02   0.02    -0.01  -0.01   0.02     0.01   0.00  -0.02
    11   1     0.01  -0.01   0.01     0.15   0.25  -0.20    -0.16  -0.25   0.22
    12   1     0.03   0.11  -0.04     0.13   0.27  -0.06    -0.10  -0.24   0.07
    13   1     0.06   0.03  -0.09     0.02   0.02  -0.09    -0.03  -0.02   0.06
    14   1     0.06  -0.03  -0.09     0.02  -0.02  -0.09     0.03  -0.02  -0.06
    15   1     0.03  -0.11  -0.04     0.13  -0.27  -0.06     0.10  -0.24  -0.07
    16   1    -0.01  -0.06   0.01     0.01   0.27   0.00    -0.02  -0.28   0.00
    17   1     0.01   0.01   0.01     0.15  -0.25  -0.20     0.16  -0.25  -0.22
    18   1    -0.01   0.06   0.01     0.01  -0.27   0.00     0.02  -0.28  -0.00
    19   1     0.02   0.25  -0.36     0.04  -0.09  -0.02     0.04  -0.11  -0.00
    20   1     0.45   0.20   0.01     0.03  -0.17  -0.08     0.00  -0.18  -0.07
    21   1     0.02  -0.25  -0.36     0.04   0.09  -0.02    -0.04  -0.11   0.00
    22   1     0.45  -0.20   0.01     0.03   0.17  -0.08    -0.00  -0.18   0.07
                     49                     50                     51
                      A                      A                      A
 Frequencies --   2978.8744              2978.9516              3090.0194
 Red. masses --      1.0723                 1.0727                 1.0875
 Frc consts  --      5.6065                 5.6084                 6.1177
 IR Inten    --     86.3199                12.1918                16.2140
  Atom  AN      X      Y      Z        X      Y      Z        X      Y      Z
     1   6     0.00   0.00  -0.00     0.00   0.00  -0.00    -0.00   0.00  -0.00
     2   6    -0.00  -0.00   0.00    -0.00  -0.00   0.00     0.00  -0.00  -0.00
     3   6    -0.00  -0.00  -0.00    -0.00  -0.00  -0.00    -0.00   0.00  -0.00
     4   6    -0.00   0.00  -0.00     0.00  -0.00   0.00     0.00   0.00   0.00
     5   6    -0.00   0.00   0.00     0.00  -0.00  -0.00    -0.00  -0.00   0.00
     6   6    -0.00   0.00  -0.00    -0.00   0.00  -0.00    -0.00  -0.00   0.00
     7   6     0.00  -0.00  -0.00    -0.00   0.00   0.00     0.00   0.00   0.00
     8   6    -0.00  -0.00  -0.00     0.00   0.00   0.00     0.00  -0.00  -0.00
     9   6    -0.05  -0.02  -0.01     0.05   0.02   0.01     0.02  -0.02   0.05
    10   6    -0.05   0.02  -0.01    -0.05   0.02  -0.01    -0.02  -0.02  -0.05
    11   1    -0.00  -0.00  -0.00    -0.00  -0.00  -0.00     0.00  -0.00   0.00
    12   1     0.00   0.00  -0.00     0.00   0.00  -0.00    -0.00   0.00   0.01
    13   1     0.00   0.01  -0.00     0.00   0.02  -0.00    -0.00  -0.03   0.01
    14   1     0.00  -0.02  -0.00    -0.00   0.02   0.00     0.00  -0.03  -0.01
    15   1     0.00  -0.00  -0.00    -0.00   0.00   0.00     0.00   0.00  -0.01
    16   1    -0.00  -0.00   0.01    -0.00  -0.00   0.01     0.01   0.01  -0.02
    17   1    -0.00   0.00  -0.00     0.00  -0.00   0.00    -0.00  -0.00  -0.00
    18   1    -0.00   0.00   0.01     0.00  -0.00  -0.01    -0.01   0.01   0.02
    19   1     0.64   0.25   0.24    -0.59  -0.23  -0.22    -0.07  -0.03  -0.01
    20   1    -0.03   0.03  -0.09     0.03  -0.03   0.08    -0.14   0.30  -0.61
    21   1     0.59  -0.23   0.22     0.64  -0.25   0.24     0.07  -0.03   0.01
    22   1    -0.03  -0.03  -0.08    -0.03  -0.03  -0.08     0.14   0.30   0.62
                     52                     53                     54
                      A                      A                      A
 Frequencies --   3091.6846              3174.7857              3180.6733
 Red. masses --      1.0882                 1.0912                 1.0901
 Frc consts  --      6.1287                 6.4802                 6.4978
 IR Inten    --     36.2848                 2.6753                18.4469
  Atom  AN      X      Y      Z        X      Y      Z        X      Y      Z
     1   6    -0.00   0.00  -0.00     0.00  -0.00  -0.00    -0.00   0.01   0.00
     2   6    -0.00  -0.00   0.00    -0.01  -0.00   0.01     0.01   0.00  -0.01
     3   6    -0.00   0.00  -0.00     0.01   0.06  -0.02    -0.01  -0.06   0.02
     4   6    -0.00  -0.00  -0.00     0.01  -0.06  -0.02     0.01  -0.06  -0.02
     5   6    -0.00   0.00   0.00    -0.01   0.00   0.01    -0.01   0.00   0.01
     6   6    -0.00  -0.00   0.00     0.00   0.00  -0.00    -0.00  -0.00   0.00
     7   6    -0.00  -0.00  -0.00     0.00   0.00  -0.00     0.00   0.01  -0.00
     8   6    -0.00   0.00   0.00     0.00  -0.00  -0.00     0.00  -0.00  -0.00
     9   6    -0.02   0.02  -0.05    -0.00  -0.00   0.00    -0.00  -0.00   0.00
    10   6    -0.02  -0.02  -0.05    -0.00   0.00   0.00     0.00  -0.00  -0.00
    11   1    -0.00   0.00   0.00    -0.00   0.05   0.02     0.00  -0.07  -0.02
    12   1     0.00  -0.00  -0.00     0.06  -0.01  -0.13    -0.07   0.01   0.14
    13   1     0.00  -0.01   0.00    -0.11  -0.63   0.25     0.11   0.63  -0.25
    14   1     0.00   0.01   0.00    -0.11   0.63   0.25    -0.11   0.63   0.25
    15   1     0.00   0.00  -0.00     0.06   0.01  -0.13     0.07   0.01  -0.14
    16   1     0.01   0.01  -0.02    -0.02  -0.02   0.03     0.02   0.02  -0.03
    17   1    -0.00  -0.00   0.00    -0.00  -0.05   0.02    -0.00  -0.07   0.02
    18   1     0.01  -0.01  -0.02    -0.02   0.02   0.03    -0.02   0.02   0.03
    19   1     0.07   0.04   0.01     0.01   0.00   0.00     0.01   0.00   0.00
    20   1     0.14  -0.30   0.62    -0.00   0.00  -0.01    -0.00   0.01  -0.03
    21   1     0.07  -0.04   0.01     0.01  -0.00   0.00    -0.01   0.00  -0.00
    22   1     0.14   0.30   0.62    -0.00  -0.00  -0.01     0.00   0.01   0.03
                     55                     56                     57
                      A                      A                      A
 Frequencies --   3188.7416              3190.2636              3214.7770
 Red. masses --      1.0885                 1.0884                 1.0975
 Frc consts  --      6.5212                 6.5269                 6.6831
 IR Inten    --      7.3607                19.2631                20.1927
  Atom  AN      X      Y      Z        X      Y      Z        X      Y      Z
     1   6    -0.00   0.05   0.02     0.00  -0.05  -0.02    -0.00   0.02   0.01
     2   6     0.00  -0.00  -0.01    -0.00   0.00   0.01     0.01  -0.00  -0.02
     3   6     0.00   0.01  -0.00    -0.00  -0.01   0.00    -0.00   0.00   0.00
     4   6     0.00  -0.01  -0.00     0.00  -0.01  -0.00    -0.00  -0.00   0.00
     5   6     0.00   0.00  -0.01     0.00   0.00  -0.01     0.01   0.00  -0.02
     6   6    -0.01  -0.01   0.02     0.01   0.01  -0.02     0.03   0.03  -0.04
     7   6    -0.00  -0.05   0.02    -0.00  -0.05   0.02    -0.00  -0.02   0.01
     8   6    -0.01   0.01   0.02    -0.01   0.01   0.02     0.03  -0.03  -0.04
     9   6    -0.00  -0.00   0.00     0.00  -0.00   0.00    -0.00   0.00  -0.00
    10   6    -0.00   0.00   0.00    -0.00  -0.00  -0.00    -0.00  -0.00  -0.00
    11   1     0.02  -0.60  -0.17    -0.02   0.59   0.17     0.01  -0.22  -0.07
    12   1    -0.05   0.01   0.10     0.04  -0.01  -0.09    -0.10   0.02   0.21
    13   1    -0.01  -0.08   0.03     0.02   0.10  -0.04    -0.00  -0.03   0.01
    14   1    -0.01   0.08   0.03    -0.02   0.09   0.04    -0.00   0.03   0.01
    15   1    -0.05  -0.01   0.10    -0.04  -0.01   0.09    -0.11  -0.02   0.21
    16   1     0.14   0.16  -0.20    -0.15  -0.17   0.21    -0.29  -0.33   0.43
    17   1     0.02   0.60  -0.18     0.02   0.59  -0.17     0.01   0.23  -0.07
    18   1     0.14  -0.16  -0.20     0.15  -0.17  -0.21    -0.30   0.33   0.43
    19   1     0.00   0.00   0.00     0.00   0.00   0.00    -0.00  -0.00  -0.00
    20   1    -0.00   0.00  -0.01    -0.00   0.01  -0.02     0.00  -0.01   0.02
    21   1     0.00  -0.00   0.00    -0.00   0.00  -0.00    -0.00   0.00  -0.00
    22   1    -0.00  -0.00  -0.01     0.00   0.01   0.02     0.00   0.01   0.02
                     58                     59                     60
                      A                      A                      A
 Frequencies --   3214.8362              3228.5141              3228.8307
 Red. masses --      1.0978                 1.1000                 1.1002
[...]
 75140,0.00033472,0.00075951,-0.00603816,0.05090476,-0.00140890,0.00551
 355,-0.00396731,-0.12817671,0.02396809,-0.27997679,-0.00693312,-0.0037
 5759,-0.00615230,0.00015204,-0.00014578,-0.00025644,-0.00057953,0.0005
 3751,-0.00022075,-0.00203328,-0.00041348,-0.00083380,0.00002313,-0.000
 17349,0.00072594,0.00108305,-0.00067512,-0.00092315,-0.00048460,-0.000
 36258,-0.00030641,-0.00162175,0.00125743,0.00052546,0.00058754,-0.0004
 6855,-0.00025032,0.13874879,-0.02659992,0.29177922,0.00547532,0.000599
 62,0.00064758,0.00137445,-0.00398774,0.00268904,-0.03995210,-0.0316054
 9,-0.03224807,-0.00776054,0.00899404,0.01055863,-0.00141554,-0.0043273
 8,-0.00094949,-0.00256820,0.00203718,-0.00433200,-0.00093166,0.0011173
 0,-0.00167631,-0.00058429,0.00119976,0.00142552,0.00158015,0.00059653,
 0.00078888,-0.00155833,-0.01788727,-0.00284145,0.00040277,-0.00014716,
 0.00007192,-0.00242395,0.00021170,0.00169867,0.04542235,0.00039558,-0.
 00375229,0.00223940,-0.00442536,-0.01382852,-0.01378038,-0.04014411,-0
 .29310220,-0.09430144,-0.00052545,-0.00035841,0.00024379,-0.00005441,0
 .00020746,-0.00010857,0.00077569,-0.00019165,0.00087194,-0.00005964,0.
 00047882,-0.00000534,-0.00021194,-0.00011672,0.00038095,-0.00001214,-0
 .00010337,-0.00021618,0.00189564,0.00209215,0.00205764,-0.00102889,-0.
 00053540,-0.00044323,0.00007092,0.00068762,0.00045995,0.04415544,0.307
 33643,-0.00334448,0.00294355,-0.00294329,0.00443521,0.02056247,0.01021
 239,-0.03218794,-0.10294031,-0.08218548,0.00436219,-0.00595893,-0.0061
 3838,0.00074331,0.00207963,0.00057936,-0.00314700,-0.00145569,-0.00258
 143,0.00023850,-0.00034534,0.00036428,0.00023884,0.00016155,-0.0006321
 9,-0.00103875,-0.00019458,0.00010408,0.00404746,-0.01665649,-0.0037303
 8,0.00056525,0.00067555,0.00061689,0.00155929,-0.00139883,-0.00055217,
 0.02533590,0.10266457,0.08485122,-0.00093176,-0.00111759,-0.00167637,-
 0.00141546,0.00432734,-0.00094995,-0.00776066,-0.00899306,0.01055969,-
 0.03995355,0.03160684,-0.03225324,0.00137451,0.00398810,0.00268856,-0.
 00058437,-0.00119975,0.00142580,0.00547519,-0.00059936,0.00064748,-0.0
 0256825,-0.00203751,-0.00433174,-0.00155864,0.01788701,-0.00284331,0.0
 0158015,-0.00059646,0.00078897,0.00018257,-0.00005087,-0.00017719,0.00
 015320,-0.00001775,-0.00001203,0.00089949,-0.00020777,-0.00019828,0.04
 542459,0.00005965,0.00047885,0.00000530,0.00005446,0.00020732,0.000108
 59,0.00052579,-0.00035795,-0.00024419,0.04014534,-0.29307999,0.0943221
 1,0.00442622,-0.01382919,0.01378279,0.00021197,-0.00011679,-0.00038099
 ,-0.00039581,-0.00375283,-0.00223931,-0.00077606,-0.00019161,-0.000872
 24,-0.00189530,0.00209389,-0.00205825,0.00001209,-0.00010336,0.0002162
 2,-0.00006258,0.00005090,0.00003323,0.00004278,0.00000291,-0.00005886,
 0.00020777,0.00070918,0.00002196,-0.04415768,0.30731316,0.00023855,0.0
 0034539,0.00036433,0.00074327,-0.00207970,0.00057961,0.00436235,0.0059
 5853,-0.00613923,-0.03219419,0.10296112,-0.08220508,0.00443511,-0.0205
 6002,0.01021292,0.00023887,-0.00016158,-0.00063222,-0.00334448,-0.0029
 4353,-0.00294266,-0.00314690,0.00145530,-0.00258141,0.00404731,0.01665
 585,-0.00373191,-0.00103884,0.00019461,0.00010405,-0.00010723,-0.00002
 376,0.00006025,-0.00014075,0.00002222,0.00009613,-0.00019831,-0.000022
 10,-0.00032476,0.02534240,-0.10268640,0.08487190,-0.00076893,-0.000769
 79,-0.00215895,0.00126159,0.00203158,0.00064216,-0.00107746,-0.0008805
 2,0.00175193,0.00280161,0.00112597,-0.00073448,-0.09163186,-0.00505485
 ,-0.12936280,-0.00265497,-0.00073567,0.00333904,-0.00431217,-0.0041066
 4,-0.00934296,0.00107379,0.00273850,-0.00099945,0.00388657,0.00003581,
 -0.00306142,0.00013670,-0.00036980,0.00005863,-0.00002349,0.00000458,-
 0.00005176,-0.00020711,0.00006938,0.00003096,0.00015321,-0.00004279,-0
 .00014076,-0.00242392,-0.00007080,0.00155931,0.09448131,0.00011293,-0.
 00007846,-0.00026587,0.00043297,-0.00018270,0.00035242,-0.00022763,-0.
 00019258,-0.00023973,-0.01321761,0.00513608,-0.02057744,-0.00366001,-0
 .05818923,-0.02522724,-0.00047296,-0.00006601,0.00050604,0.00749016,0.
 00836279,0.01954574,0.00244279,-0.00393130,0.00274150,0.00161098,-0.00
 379246,-0.00346410,0.00033363,0.00004775,-0.00035949,0.00003032,0.0000
 0535,0.00000962,-0.00006937,-0.00002998,0.00000743,0.00001776,0.000002
 91,-0.00002222,-0.00021159,0.00068772,0.00139874,0.00605286,0.05091010
 ,0.00002314,0.00017359,0.00072607,-0.00057957,-0.00053761,-0.00022079,
 0.00015215,0.00014583,-0.00025651,-0.00693190,0.00375642,-0.00615040,-
 0.12817758,-0.02399280,-0.27997201,0.00108326,0.00067514,-0.00092345,-
 0.00140926,-0.00551477,-0.00396841,-0.00203349,0.00041366,-0.00083417,
 -0.00162190,-0.00125698,0.00052600,-0.00048469,0.00036255,-0.00030641,
 0.00001916,-0.00002162,0.00001016,0.00003098,-0.00000742,0.00007903,-0
 .00001204,0.00005887,0.00009613,0.00169870,-0.00046005,-0.00055228,0.1
 3874887,0.02662656,0.29177373,-0.00077653,-0.00730143,-0.00454415,0.00
 337648,0.00027591,-0.00496205,-0.00097245,0.00001793,-0.00088961,0.000
 19055,0.00008008,0.00018816,-0.00007527,0.00010281,-0.00036210,-0.1031
 3265,-0.07771789,-0.11139165,0.00039495,-0.00029722,0.00024746,-0.0000
 1963,-0.00001315,-0.00033211,0.00016875,0.00032543,0.00021169,0.001634
 05,0.00296772,0.00395218,-0.00313191,0.00067711,0.00215824,0.00039567,
 -0.00101624,-0.00040004,0.00107192,-0.00014920,-0.00104106,-0.00002316
 ,-0.00004916,-0.00004640,0.00000589,-0.00014141,0.00017785,0.10106543,
 0.00675014,0.01031589,0.00903270,0.00050930,-0.00057985,0.00268531,0.0
 0118542,-0.00576373,0.00045911,0.00038397,-0.00012729,-0.00023277,0.00
 009490,0.00005645,-0.00012570,-0.07717779,-0.14027996,-0.10798023,-0.0
 0006607,0.00012425,0.00004129,-0.00011453,-0.00003481,0.00012779,-0.00
 000980,0.00010047,-0.00003903,-0.01381907,-0.00464034,-0.01789297,-0.0
 0010128,0.00027229,-0.00111765,0.00017119,0.00080626,0.00026575,-0.001
 34404,0.00014208,-0.00103382,0.00004485,0.00004633,-0.00006277,-0.0000
 8139,-0.00001827,0.00011305,0.08301251,0.13903798,-0.01015157,-0.01751
 870,-0.00849375,-0.00385545,0.00254335,-0.00183954,0.00061968,0.001987
 88,0.00026167,0.00007753,-0.00002510,-0.00014916,-0.00005402,0.0000722
 5,0.00040495,-0.10802811,-0.10410206,-0.18473502,-0.00017634,0.0000516
 2,-0.00015592,0.00003665,0.00010596,0.00019195,-0.00007380,-0.00018044
 ,-0.00009177,0.00303410,0.00306084,0.00253648,0.00238785,0.00016394,-0
 .00059245,-0.00076754,-0.00076733,-0.00017745,-0.00041713,0.00007451,0
 .00101182,-0.00001113,0.00003099,0.00005256,-0.00006653,0.00002241,0.0
 0003635,0.11759468,0.11535701,0.19130301,0.00009002,-0.00001466,0.0002
 0947,0.00002156,-0.00017105,0.00015481,0.00017052,-0.00058240,-0.00045
 971,0.00167076,0.00277563,-0.00357617,0.00235459,0.01186244,0.00592346
 ,0.00033247,-0.00004667,-0.00034446,-0.04253530,-0.00822709,-0.0109440
 0,0.00332740,-0.01307520,-0.00238608,0.00585425,0.00014079,-0.00677095
 ,0.00003652,0.00002155,0.00001634,-0.00012975,-0.00005694,0.00011211,-
 0.00002349,-0.00003031,0.00001916,0.00018256,0.00006257,-0.00010723,0.
 00040275,0.00102896,0.00056516,-0.00107360,-0.00075136,0.00058755,-0.0
 0008600,0.00001053,0.00001295,0.03251277,-0.00019505,-0.00015453,-0.00
 014375,-0.00003757,0.00019159,-0.00033435,-0.00028052,0.00001187,0.000
 31509,0.00119166,-0.00283301,0.00146105,-0.00405492,-0.01079234,-0.009
 46293,-0.00012259,0.00021527,0.00038975,-0.00623041,-0.31723685,-0.076
 58553,0.00171784,-0.00377174,0.00166529,0.00117743,0.00020258,-0.00143
 144,0.00005482,-0.00007089,-0.00001405,0.00005695,0.00016724,-0.000089
 86,-0.00000459,0.00000535,0.00002163,0.00005086,0.00005090,0.00002376,
 0.00014718,-0.00053540,-0.00067542,0.00002819,0.00033466,0.00046850,0.
 00011304,0.00000574,-0.00001411,0.00738092,0.33431513,0.00006112,-0.00
 009351,0.00012383,0.00000532,-0.00017126,0.00005595,0.00034170,0.00040
 408,-0.00018960,-0.00356368,0.00294484,-0.00066216,0.00206865,0.013985
 12,0.00880021,0.00002291,0.00009934,0.00013278,-0.01129830,-0.07459481
 ,-0.07624581,0.00054375,-0.02486212,0.00176323,-0.00503914,-0.00155621
 ,-0.00153003,-0.00004911,0.00001443,-0.00006952,0.00011210,0.00008984,
 -0.00005696,-0.00005176,-0.00000962,0.00001016,-0.00017719,-0.00003324
 ,0.00006025,0.00007190,0.00044333,0.00061690,0.00096822,-0.00075954,-0
 .00025029,-0.00001789,-0.00001796,-0.00000407,0.01396042,0.08461359,0.
 06824886,0.00039492,0.00029722,0.00024742,-0.00007523,-0.00010289,-0.0
 0036199,0.00019058,-0.00008005,0.00018815,-0.00097229,-0.00001789,-0.0
 0088948,0.00337644,-0.00027655,-0.00496215,-0.00001962,0.00001312,-0.0
 0033206,-0.00077686,0.00730121,-0.00454517,-0.10313964,0.07770917,-0.1
 1140257,0.00163381,-0.00296713,0.00395188,0.00016878,-0.00032543,0.000
 21169,-0.00008599,-0.00011303,-0.00001788,0.00000588,0.00014141,0.0001
 7782,-0.00002316,0.00004915,-0.00004640,0.00107183,0.00014910,-0.00104
 108,0.00039560,0.00101624,-0.00040015,0.00001263,0.00001025,-0.0000000
 6,-0.00313186,-0.00067700,0.00215836,0.10107290,0.00006607,0.00012424,
 -0.00004131,-0.00009489,0.00005644,0.00012573,-0.00038393,-0.00012726,
 0.00023276,-0.00118525,-0.00576397,-0.00045851,-0.00050966,-0.00058043
 ,-0.00268553,0.00011455,-0.00003483,-0.00012778,-0.00675155,0.01031675
 ,-0.00903461,0.07716965,-0.14025521,0.10797178,0.01381968,-0.00463862,
 0.01789364,0.00000979,0.00010048,0.00003902,-0.00001053,0.00000575,0.0
 0001796,0.00008137,-0.00001828,-0.00011302,-0.00004486,0.00004634,0.00
 006277,0.00134404,0.00014221,0.00103385,-0.00017127,0.00080633,-0.0002
 6586,-0.00001025,0.00001508,0.00000185,0.00010145,0.00027237,0.0011176
 2,-0.08300345,0.13901112,-0.00017634,-0.00005165,-0.00015591,-0.000054
 03,-0.00007217,0.00040490,0.00007754,0.00002509,-0.00014919,0.00061981
 ,-0.00198732,0.00026185,-0.00385545,-0.00254343,-0.00183880,0.00003663
 ,-0.00010594,0.00019195,-0.01015132,0.01751640,-0.00849425,-0.10803937
 ,0.10409369,-0.18475262,0.00303286,-0.00306005,0.00253501,-0.00007382,
 0.00018045,-0.00009178,0.00001295,0.00001411,-0.00000407,-0.00006653,-
 0.00002241,0.00003634,-0.00001113,-0.00003099,0.00005256,-0.00041725,-
 0.00007442,0.00101174,-0.00076757,0.00076716,-0.00017746,-0.00000006,-
 0.00000185,0.00000012,0.00238790,-0.00016395,-0.00059264,0.11760689,-0
 .11534758,0.19132205,-0.00060184,-0.00002510,-0.00055092,-0.00029645,0
 .00186882,-0.00100610,-0.00239826,-0.00149740,0.00060071,-0.01993028,-
 0.00849894,0.00425584,0.00002025,0.00213575,-0.00040195,-0.00057941,-0
 .00021605,0.00008759,0.00036039,0.00065877,0.00108555,0.00265594,-0.00
 077307,-0.00086226,-0.22912484,-0.07271075,0.07299500,-0.00022329,-0.0
 0047278,0.00034411,-0.00001636,-0.00009632,-0.00001049,0.00021451,-0.0
 0002422,-0.00008037,0.00035506,-0.00000283,-0.00020486,0.00071596,0.00
 056068,-0.00024174,0.00032163,-0.00005418,-0.00044674,0.00002075,-0.00
 002755,-0.00005722,-0.00020124,-0.00016208,0.00003153,-0.00020289,-0.0
 0060502,-0.00012824,0.25482271,-0.00031454,0.00009709,-0.00038367,-0.0
 0022407,-0.00000817,0.00019164,0.00084781,0.00019589,0.00078946,0.0074
 8327,0.00262247,-0.00143838,-0.00011728,-0.00082566,0.00158744,-0.0000
 4442,-0.00030779,-0.00002774,0.00148534,-0.00266023,0.00110855,-0.0280
 5254,-0.01639403,0.00603921,-0.07735175,-0.06512335,0.02677763,0.00036
 188,0.00001350,-0.00011222,0.00004734,0.00001176,-0.00001304,0.0001009
 7,-0.00003908,0.00008234,-0.00014719,0.00014802,0.00017209,-0.00029189
 ,0.00008764,-0.00022855,-0.00016857,-0.00001837,-0.00001362,-0.0000864
 4,0.00002348,0.00005111,0.00165063,0.00009502,-0.00128485,0.00104619,-
 0.00002229,-0.00006405,0.08196393,0.07694529,-0.00056953,-0.00064059,-
 0.00118627,0.00097641,0.00146426,-0.00020783,-0.00083691,-0.00041525,0
 .00041506,-0.01749967,-0.00788346,0.00345842,0.00068082,-0.00239062,0.
 00044196,-0.00071913,-0.00028374,0.00126672,-0.00334106,0.00168390,-0.
 00300880,0.00244925,0.00386810,0.00028910,0.07092752,0.02367748,-0.066
 59724,0.00028683,-0.00017723,-0.00021268,0.00003602,0.00000743,-0.0000
 4399,-0.00026191,0.00004951,0.00040389,-0.00003279,0.00015487,0.000090
 78,0.00077884,0.00040237,0.00069456,0.00069057,0.00009664,-0.00060538,
 -0.00009399,0.00000749,0.00007267,0.00031948,-0.00001581,-0.00025062,-
 0.00023534,0.00038354,0.00023431,-0.07825847,-0.02924060,0.07440833,0.
 00012215,-0.00008316,0.00024947,-0.00085926,-0.00054558,-0.00022326,-0
 .00076494,-0.00076010,-0.00193648,0.00265105,-0.01204591,-0.01674441,-
 0.00324278,0.00241287,-0.00399758,0.00022507,0.00026025,-0.00007082,0.
 00180411,-0.00008672,0.00082969,-0.00247829,-0.00257077,0.00085887,-0.
 05092666,0.02663512,0.04489825,-0.00032532,0.00020700,0.00023637,0.000
 00830,0.00003796,0.00003936,-0.00025944,-0.00037810,0.00007004,-0.0002
 5398,0.00032228,-0.00017681,-0.00016151,0.00030208,0.00034927,-0.00029
 944,-0.00113686,-0.00041400,0.00012348,0.00000499,-0.00004085,0.000233
 12,-0.00021254,-0.00017777,-0.00004007,0.00004150,0.00006460,-0.005800
 36,0.01162484,0.02477798,0.06023087,-0.00027076,-0.00023786,-0.0004479
 8,-0.00011408,0.00006264,-0.00032933,0.00016157,0.00055961,0.00071230,
 -0.00335388,0.00344765,0.00677993,0.00253203,-0.00045594,0.00089537,-0
 .00007426,-0.00020567,0.00028664,0.00061612,-0.00608588,0.00018176,0.0
 0436635,-0.00933504,-0.02877225,0.02430133,-0.09445229,-0.10022317,0.0
 0020187,-0.00006943,-0.00011905,0.00001985,0.00001302,-0.00001068,-0.0
 0031174,-0.00020199,0.00044847,-0.00002480,0.00005954,0.00015759,-0.00
 003603,-0.00006048,-0.00025212,0.00015449,0.00044681,-0.00019274,-0.00
 006286,0.00000768,0.00006902,-0.00201258,-0.00049774,-0.00035278,-0.00
 031893,0.00051262,0.00104901,-0.00186705,0.00498892,0.00939520,-0.0239
 5195,0.10141391,0.00005522,-0.00027960,-0.00034181,0.00077731,0.000405
 10,0.00092900,0.00187883,0.00005156,-0.00082999,0.00531220,-0.00865140
 ,-0.01369064,-0.00200771,-0.00049389,-0.00277849,0.00045424,-0.0000980
 6,0.00065386,0.00009465,0.00188249,-0.00172925,-0.00109926,0.00184618,
 0.00548990,0.04188588,-0.10085731,-0.25234233,0.00018695,0.00049301,-0
 .00025722,0.00005496,0.00003109,-0.00003463,-0.00005052,0.00011952,0.0
 0044571,-0.00057156,0.00044749,0.00052900,-0.00052752,0.00031017,-0.00
 017530,-0.00079057,-0.00098969,0.00012052,-0.00017664,0.00004865,0.000
 12137,0.00022879,0.00001108,0.00011815,-0.00003723,-0.00075016,0.00001
 182,0.00304168,-0.00411241,-0.00955735,-0.04862857,0.11064360,0.273276
 41,0.00036054,-0.00065854,0.00108575,0.00002027,-0.00213585,-0.0004017
 1,-0.01993018,0.00849861,0.00425479,-0.00239832,0.00149746,0.00060058,
 -0.00029648,-0.00186891,-0.00100594,0.00265498,0.00077354,-0.00086210,
 -0.00060184,0.00002500,-0.00055087,-0.00057937,0.00021603,0.00008753,-
 0.00022331,0.00047281,0.00034409,-0.22913153,0.07271339,0.07298808,-0.
 00020120,0.00016207,0.00003147,0.00032164,0.00005414,-0.00044675,0.000
 71594,-0.00056068,-0.00024170,0.00035507,0.00000281,-0.00020487,0.0002
 1453,0.00002422,-0.00008038,-0.00020287,0.00060500,-0.00012831,-0.0000
 1636,0.00009632,-0.00001050,0.00002076,0.00002755,-0.00005723,-0.00008
 088,0.00012940,-0.00005562,-0.00003111,0.00002520,-0.00013704,0.254829
 99,-0.00148547,-0.00266045,-0.00110853,0.00011737,-0.00082564,-0.00158
 731,-0.00748566,0.00262335,0.00143848,-0.00084794,0.00019582,-0.000789
 49,0.00022419,-0.00000837,-0.00019165,0.02805325,-0.01639415,-0.006037
 41,0.00031452,0.00009720,0.00038353,0.00004437,-0.00030779,0.00002788,
 -0.00036188,0.00001353,0.00011222,0.07735421,-0.06512342,-0.02677494,-
 0.00165060,0.00009512,0.00128473,0.00016863,-0.00001837,0.00001356,0.0
 0029199,0.00008759,0.00022859,0.00014719,0.00014800,-0.00017211,-0.000
 10100,-0.00003910,-0.00008230,-0.00104622,-0.00002233,0.00006406,-0.00
 004734,0.00001176,0.00001303,0.00008643,0.00002348,-0.00005110,-0.0001
 2941,0.00011210,-0.00010486,-0.00005710,0.00005780,-0.00001484,-0.0819
 6663,0.07694577,-0.00334087,-0.00168401,-0.00300857,0.00068064,0.00239
 083,0.00044190,-0.01749932,0.00788307,0.00345744,-0.00083686,0.0004153
 0,0.00041508,0.00097639,-0.00146430,-0.00020767,0.00244681,-0.00386655
 ,0.00029000,-0.00056954,0.00064046,-0.00118634,-0.00071907,0.00028383,
 0.00126664,0.00028684,0.00017722,-0.00021271,0.07092006,-0.02367489,-0
 .06659132,0.00031964,0.00001578,-0.00025074,0.00069059,-0.00009670,-0.
 00060537,0.00077883,-0.00040231,0.00069456,-0.00003280,-0.00015489,0.0
 0009082,-0.00026191,-0.00004947,0.00040391,-0.00023524,-0.00038351,0.0
 0023433,0.00003602,-0.00000743,-0.00004399,-0.00009400,-0.00000749,0.0
 0007268,-0.00005561,0.00010484,-0.00007625,-0.00001928,0.00003861,-0.0
 0002939,-0.07825068,0.02923740,0.07440160,0.00180414,0.00008703,0.0008
 2971,-0.00324258,-0.00241335,-0.00399732,0.00265071,0.01204431,-0.0167
 4517,-0.00076501,0.00075992,-0.00193657,-0.00085926,0.00054558,-0.0002
 2333,-0.00247831,0.00257106,0.00085776,0.00012213,0.00008317,0.0002494
 6,0.00022507,-0.00026025,-0.00007078,-0.00032533,-0.00020698,0.0002364
 0,-0.05092615,-0.02663039,0.04489943,0.00023307,0.00021254,-0.00017781
 ,-0.00029943,0.00113678,-0.00041413,-0.00016148,-0.00030205,0.00034933
 ,-0.00025402,-0.00032231,-0.00017681,-0.00025950,0.00037813,0.00007003
 ,-0.00004008,-0.00004152,0.00006463,0.00000831,-0.00003795,0.00003937,
 0.00012348,-0.00000499,-0.00004085,-0.00003111,0.00005710,-0.00001928,
 0.00004500,0.00002010,0.00005591,-0.00580026,-0.01162289,0.02477934,0.
 06023063,-0.00061589,-0.00608615,-0.00018130,-0.00253228,-0.00045607,-
 0.00089576,0.00335445,0.00344827,-0.00678200,-0.00016143,0.00055951,-0
 .00071248,0.00011411,0.00006261,0.00032946,-0.00436645,-0.00933246,0.0
 2877355,0.00027080,-0.00023778,0.00044794,0.00007429,-0.00020570,-0.00
 028657,-0.00020185,-0.00006946,0.00011904,-0.02429685,-0.09443506,0.10
 020916,0.00201257,-0.00049764,0.00035292,-0.00015459,0.00044695,0.0001
 9269,0.00003599,-0.00006048,0.00025213,0.00002473,0.00005949,-0.000157
 55,0.00031174,-0.00020206,-0.00044840,0.00031893,0.00051259,-0.0010490
 4,-0.00001985,0.00001302,0.00001067,0.00006284,0.00000767,-0.00006900,
 -0.00002521,0.00005779,-0.00003862,-0.00002010,0.00003212,-0.00004258,
 0.00186707,0.00498812,-0.00939577,0.02394697,0.10139472,0.00009478,-0.
 00188206,-0.00172904,-0.00200755,0.00049359,-0.00277850,0.00531191,0.0
 0865010,-0.01369087,0.00187881,-0.00005160,-0.00082990,0.00077731,-0.0
 0040507,0.00092901,-0.00109883,-0.00184482,0.00548734,0.00005521,0.000
 27960,-0.00034191,0.00045423,0.00009814,0.00065386,0.00018698,-0.00049
 304,-0.00025718,0.04188670,0.10084329,-0.25236006,0.00022858,-0.000011
 02,0.00011814,-0.00079056,0.00098966,0.00012038,-0.00052750,-0.0003102
 0,-0.00017526,-0.00057154,-0.00044747,0.00052906,-0.00005052,-0.000119
 47,0.00044569,-0.00003727,0.00075011,0.00001185,0.00005496,-0.00003109
 ,-0.00003463,-0.00017665,-0.00004865,0.00012139,-0.00013704,0.00001483
 ,-0.00002939,0.00005591,0.00004258,0.00007065,0.00304140,0.00411106,-0
 .00955661,-0.04862930,-0.11062848,0.27329598\\0.00039590,0.00077168,0.
 00112001,0.00234520,-0.00118801,-0.00109136,0.00911336,-0.00048054,-0.
 00718122,-0.00911310,-0.00048014,0.00718132,-0.00234589,-0.00118785,0.
 00109129,0.00191570,0.00043523,-0.00079983,-0.00039574,0.00077158,-0.0
 0111945,-0.00191531,0.00043514,0.00079919,-0.00104485,0.00033621,0.000
 87363,0.00104437,0.00033625,-0.00087309,-0.00015923,0.00007440,0.00016
 550,-0.00005858,0.00003277,0.00005723,0.00005735,-0.00005544,-0.000097
 48,-0.00005743,-0.00005518,0.00009734,0.00005866,0.00003284,-0.0000570
 5,0.00011339,-0.00000328,-0.00000267,0.00015920,0.00007425,-0.00016559
 ,-0.00011330,-0.00000335,0.00000273,-0.00025757,0.00005418,-0.00038281
 ,0.00026716,0.00002258,0.00015797,0.00025789,0.00005403,0.00038257,-0.
 00026717,0.00002265,-0.00015822\\\@


 THERE IS MUCH PLEASURE TO BE GAINED FROM USELESS KNOWLEDGE

                                       -- BERTRAND RUSSELL
 Job cpu time:       0 days  1 hours  4 minutes 18.4 seconds.
 Elapsed time:       0 days  0 hours  0 minutes 41.2 seconds.
 File lengths (MBytes):  RWF=    181 Int=      0 D2E=      0 Chk=     10 Scr=      1
 Normal termination of Gaussian 16 at Mon Jul 28 00:11:06 2025.
