 Entering Gaussian System, Link 0=g16
 Initial command:
 /home/hongchang/data/software/Gaussian/g16/l1.exe "/home/hongchang/data/software/Gaussian/g16/scratch/Gau-1346830.inp" -scrdir="/home/hongchang/data/software/Gaussian/g16/scratch/"
 Entering Link 1 = /home/hongchang/data/software/Gaussian/g16/l1.exe PID=   1346831.
  
 Copyright (c) 1988,1990,1992,1993,1995,1998,2003,2009,2016,
            Gaussian, Inc.  All Rights Reserved.
  
 This is part of the Gaussian(R) 16 program.  It is based on
 the Gaussian(R) 09 system (copyright 2009, Gaussian, Inc.),
 the Gaussian(R) 03 system (copyright 2003, Gaussian, Inc.),
 the Gaussian(R) 98 system (copyright 1998, Gaussian, Inc.),
 the Gaussian(R) 94 system (copyright 1995, Gaussian, Inc.),
 the Gaussian 92(TM) system (copyright 1992, Gaussian, Inc.),
 the Gaussian 90(TM) system (copyright 1990, Gaussian, Inc.),
 the Gaussian 88(TM) system (copyright 1988, Gaussian, Inc.),
 the Gaussian 86(TM) system (copyright 1986, Carnegie Mellon
 University), and the Gaussian 82(TM) system (copyright 1983,
 Carnegie Mellon University). Gaussian is a federally registered
 trademark of Gaussian, Inc.
  
 This software contains proprietary and confidential information,
 including trade secrets, belonging to Gaussian, Inc.
  
 This software is provided under written license and may be
 used, copied, transmitted, or stored only in accord with that
 written license.
  
 The following legend is applicable only to US Government
 contracts under FAR:
  
                    RESTRICTED RIGHTS LEGEND
  
 Use, reproduction and disclosure by the US Government is
 subject to restrictions as set forth in subparagraphs (a)
 and (c) of the Commercial Computer Software - Restricted
 Rights clause in FAR 52.227-19.
  
 Gaussian, Inc.
 340 Quinnipiac St., Bldg. 40, Wallingford CT 06492
  
  
 ---------------------------------------------------------------
 Warning -- This program may not be used in any manner that
 competes with the business of Gaussian, Inc. or will provide
 assistance to any competitor of Gaussian, Inc.  The licensee
 of this program is prohibited from giving any competitor of
 Gaussian, Inc. access to this program.  By using this program,
 the user acknowledges that Gaussian, Inc. is engaged in the
 business of creating and licensing software in the field of
 computational chemistry and represents and warrants to the
 licensee that it is not a competitor of Gaussian, Inc. and that
 it will not use this program in any manner prohibited above.
 ---------------------------------------------------------------
  

 Cite this work as:
 Gaussian 16, Revision A.03,
 M. J. Frisch, G. W. Trucks, H. B. Schlegel, G. E. Scuseria, 
 M. A. Robb, J. R. Cheeseman, G. Scalmani, V. Barone, 
 G. A. Petersson, H. Nakatsuji, X. Li, M. Caricato, A. V. Marenich, 
 J. Bloino, B. G. Janesko, R. Gomperts, B. Mennucci, H. P. Hratchian, 
 J. V. Ortiz, A. F. Izmaylov, J. L. Sonnenberg, D. Williams-Young, 
 F. Ding, F. Lipparini, F. Egidi, J. Goings, B. Peng, A. Petrone, 
 T. Henderson, D. Ranasinghe, V. G. Zakrzewski, J. Gao, N. Rega, 
 G. Zheng, W. Liang, M. Hada, M. Ehara, K. Toyota, R. Fukuda, 
 J. Hasegawa, M. Ishida, T. Nakajima, Y. Honda, O. Kitao, H. Nakai, 
 T. Vreven, K. Throssell, J. A. Montgomery, Jr., J. E. Peralta, 
 F. Ogliaro, M. J. Bearpark, J. J. Heyd, E. N. Brothers, K. N. Kudin, 
 V. N. Staroverov, T. A. Keith, R. Kobayashi, J. Normand, 
 K. Raghavachari, A. P. Rendell, J. C. Burant, S. S. Iyengar, 
 J. Tomasi, M. Cossi, J. M. Millam, M. Klene, C. Adamo, R. Cammi, 
 J. W. Ochterski, R. L. Martin, K. Morokuma, O. Farkas, 
 J. B. Foresman, and D. J. Fox, Gaussian, Inc., Wallingford CT, 2016.
 
 ******************************************
 Gaussian 16:  ES64L-G16RevA.03 25-Dec-2016
                28-Jul-2025 
 ******************************************
 %nprocshared=96
 Will use up to   96 processors via shared memory.
 %mem=600GB
 %chk=01_02_path1_2.chk
 -----------------------------------------------------------
 # freq b3lyp/6-311g(d,p) em=gd3bj scrf(solvent=Cis-Decalin)
 -----------------------------------------------------------
 1/10=4,30=1,38=1/1,3;
 2/12=2,17=6,18=5,40=1/2;
 3/5=4,6=6,7=101,11=2,25=1,30=1,70=2201,71=2,72=99,74=-5,124=41,140=1/1,2,3;
 4//1;
 5/5=2,38=5,53=99,98=1/2;
 8/6=4,10=90,11=11/1;
 11/6=1,8=1,9=11,15=111,16=1/1,2,10;
 10/6=1/2;
 6/7=2,8=2,9=2,10=2,28=1/1;
 7/8=1,10=1,25=1/1,2,3,16;
 1/10=4,30=1/3;
 99//99;
 -------------
 01_02_path1_2
 -------------
 Symbolic Z-matrix:
 Charge =  0 Multiplicity = 1
 C                    -1.3614   -1.16262   0.66055 
 C                    -0.7279   -0.09865   1.3639 
 C                    -0.81576   1.06835   0.5816 
 C                     0.81573   1.0683   -0.5817 
 C                     0.72788  -0.09879  -1.36388 
 C                    -1.92193  -0.69182  -0.49159 
 C                     1.36142  -1.16267  -0.66043 
 C                     1.92197  -0.69174   0.49165 
 C                     1.88253   0.81139   0.47116 
 C                    -1.88254   0.81132  -0.47124 
 H                    -1.33418  -2.20059   0.96665 
 H                    -0.24969  -0.18331   2.32796 
 H                    -0.69123   2.05574   1.01086 
 H                     0.69119   2.05564  -1.01106 
 H                     0.24968  -0.18355  -2.32793 
 H                    -2.44817  -1.27654  -1.23321 
 H                     1.33422  -2.20067  -0.96643 
 H                     2.44823  -1.27637   1.23331 
 H                     2.84268   1.19371   0.09173 
 H                     1.70435   1.28589   1.43699 
 H                    -2.84271   1.19364  -0.09186 
 H                    -1.70437   1.28573  -1.43712 
 

 GradGradGradGradGradGradGradGradGradGradGradGradGradGradGradGradGradGrad
 Berny optimization.
 Initialization pass.
 Trust Radius=3.00D-01 FncErr=1.00D-07 GrdErr=1.00D-07 EigMax=2.50D+02 EigMin=1.00D-04
 Number of steps in this run=      2 maximum allowed number of steps=      2.
 GradGradGradGradGradGradGradGradGradGradGradGradGradGradGradGradGradGrad

                          Input orientation:                          
 ---------------------------------------------------------------------
 Center     Atomic      Atomic             Coordinates (Angstroms)
 Number     Number       Type             X           Y           Z
 ---------------------------------------------------------------------
      1          6           0       -1.361397   -1.162616    0.660546
      2          6           0       -0.727895   -0.098652    1.363900
      3          6           0       -0.815757    1.068350    0.581598
      4          6           0        0.815730    1.068297   -0.581698
      5          6           0        0.727876   -0.098786   -1.363879
      6          6           0       -1.921929   -0.691816   -0.491591
      7          6           0        1.361417   -1.162667   -0.660429
      8          6           0        1.921965   -0.691739    0.491646
      9          6           0        1.882526    0.811394    0.471155
     10          6           0       -1.882536    0.811319   -0.471240
     11          1           0       -1.334181   -2.200591    0.966648
     12          1           0       -0.249694   -0.183307    2.327959
     13          1           0       -0.691233    2.055740    1.010860
     14          1           0        0.691188    2.055640   -1.011061
     15          1           0        0.249675   -0.183546   -2.327928
     16          1           0       -2.448167   -1.276538   -1.233205
     17          1           0        1.334220   -2.200673   -0.966427
     18          1           0        2.448230   -1.276374    1.233309
     19          1           0        2.842684    1.193705    0.091734
     20          1           0        1.704349    1.285888    1.436994
     21          1           0       -2.842709    1.193635   -0.091861
     22          1           0       -1.704366    1.285731   -1.437121
 ---------------------------------------------------------------------
                    Distance matrix (angstroms):
                    1          2          3          4          5
     1  C    0.000000
     2  C    1.424097   0.000000
     3  C    2.298079   1.407697   0.000000
     4  C    3.355596   2.744066   2.003748   0.000000
     5  C    3.097595   3.091933   2.744065   1.407696   0.000000
     6  C    1.365016   2.284821   2.339559   3.255901   2.852023
     7  C    3.026333   3.097622   3.355615   2.298080   1.424099
     8  C    3.321253   2.852076   3.255937   2.339562   2.284823
     9  C    3.802055   2.905077   2.712739   1.520708   2.351381
    10  C    2.334297   2.351379   1.520707   2.712725   2.905055
    11  H    1.082512   2.223407   3.332117   4.207745   3.755132
    12  H    2.230515   1.079469   2.221902   3.341818   3.820007
    13  H    3.306003   2.183435   1.083841   2.404625   3.506457
    14  H    4.167079   3.506453   2.404618   1.083840   2.183433
    15  H    3.533427   3.820006   3.341815   2.221902   1.079468
    16  H    2.186399   3.330421   3.384785   4.071331   3.389900
    17  H    3.315261   3.755161   4.207766   3.332118   2.223410
    18  H    3.854122   3.389964   4.071372   3.384788   3.330423
    19  H    4.852844   4.004701   3.693220   2.139575   2.874327
    20  H    3.999605   2.799662   2.670198   2.216327   3.273486
    21  H    2.883109   2.874315   2.139574   3.693213   4.004680
    22  H    3.242258   3.273489   2.216327   2.670189   2.799652
                    6          7          8          9         10
     6  C    0.000000
     7  C    3.321230   0.000000
     8  C    3.967654   1.365014   0.000000
     9  C    4.202428   2.334299   1.503790   0.000000
    10  C    1.503789   3.802058   4.202447   3.881211   0.000000
    11  H    2.179062   3.315255   3.620048   4.434498   3.382280
    12  H    3.317350   3.533453   2.889057   2.997251   3.389833
    13  H    3.364675   4.167100   3.827144   2.909281   2.272533
    14  H    3.827106   3.306002   3.364674   2.272531   2.909261
    15  H    2.889003   2.230516   3.317350   3.389834   2.997227
    16  H    1.081119   3.854085   4.734465   5.100902   2.293398
    17  H    3.620031   1.082511   2.179060   3.382282   4.434504
    18  H    4.734478   2.186398   1.081118   2.293398   5.100930
    19  H    5.157227   2.883122   2.136013   1.100920   4.773978
    20  H    4.558579   3.242253   2.202737   1.090750   4.090515
    21  H    2.136012   4.852845   5.157251   4.773986   1.100921
    22  H    2.202738   3.999616   4.558597   4.090514   1.090751
                   11         12         13         14         15
    11  H    0.000000
    12  H    2.664341   0.000000
    13  H    4.304845   2.634965   0.000000
    14  H    5.111649   4.128825   2.449337   0.000000
    15  H    4.175081   4.682590   4.128827   2.634962   0.000000
    16  H    2.633285   4.325544   4.384829   4.583482   3.109888
    17  H    3.295018   4.175108   5.111671   4.304844   2.664343
    18  H    3.902809   3.109959   4.583524   4.384827   4.325543
    19  H    5.452790   4.057051   3.751862   2.566715   3.804639
    20  H    4.648594   2.602045   2.552073   2.758983   4.295341
    21  H    3.862236   3.804632   2.566723   3.751854   4.057026
    22  H    4.250833   4.295343   2.758979   2.552051   2.602035
                   16         17         18         19         20
    16  H    0.000000
    17  H    3.902774   0.000000
    18  H    5.482554   2.633284   0.000000
    19  H    5.987543   3.862249   2.749560   0.000000
    20  H    5.562318   4.250828   2.675824   1.764661   0.000000
    21  H    2.749561   5.452791   5.987575   5.688357   4.798088
    22  H    2.675826   4.648610   5.562341   4.798076   4.458685
                   21         22
    21  H    0.000000
    22  H    1.764662   0.000000
 Stoichiometry    C10H12
 Framework group  C1[X(C10H12)]
 Deg. of freedom    60
 Full point group                 C1      NOp   1
 Largest Abelian subgroup         C1      NOp   1
 Largest concise Abelian subgroup C1      NOp   1
                         Standard orientation:                         
 ---------------------------------------------------------------------
 Center     Atomic      Atomic             Coordinates (Angstroms)
 Number     Number       Type             X           Y           Z
 ---------------------------------------------------------------------
      1          6           0        1.362006    1.174685    0.659262
      2          6           0        0.729146    0.110744    1.363229
      3          6           0        0.816287   -1.056282    0.580882
      4          6           0       -0.816267   -1.056259   -0.580917
      5          6           0       -0.729127    0.110800   -1.363213
      6          6           0        1.921479    0.703848   -0.493375
      7          6           0       -1.362019    1.174704   -0.659215
      8          6           0       -1.921511    0.703813    0.493388
      9          6           0       -1.882096   -0.799320    0.472907
     10          6           0        1.882100   -0.799287   -0.472942
     11          1           0        1.335075    2.212669    0.965357
     12          1           0        0.251830    0.195430    2.327724
     13          1           0        0.692153   -2.043659    1.010288
     14          1           0       -0.692122   -2.043615   -1.010364
     15          1           0       -0.251810    0.195529   -2.327703
     16          1           0        2.447039    1.288545   -1.235489
     17          1           0       -1.335099    2.212701   -0.965269
     18          1           0       -2.447093    1.288473    1.235516
     19          1           0       -2.842603   -1.181640    0.094379
     20          1           0       -1.703034   -1.273786    1.438597
     21          1           0        2.842620   -1.181594   -0.094432
     22          1           0        1.703043   -1.273727   -1.438645
 ---------------------------------------------------------------------
 Rotational constants (GHZ):           2.3901521           1.3221095           1.2597173
 Standard basis: 6-311G(d,p) (5D, 7F)
 There are   262 symmetry adapted cartesian basis functions of A   symmetry.
 There are   252 symmetry adapted basis functions of A   symmetry.
   252 basis functions,   416 primitive gaussians,   262 cartesian basis functions
    36 alpha electrons       36 beta electrons
       nuclear repulsion energy       520.9702739524 Hartrees.
 NAtoms=   22 NActive=   22 NUniq=   22 SFac= 1.00D+00 NAtFMM=   60 NAOKFM=F Big=F
 Integral buffers will be    131072 words long.
 Raffenetti 2 integral format.
 Two-electron integral symmetry is turned on.
 Nuclear repulsion after empirical dispersion term =      520.9246493160 Hartrees.
 Force inversion solution in PCM.
 ------------------------------------------------------------------------------
 Polarizable Continuum Model (PCM)
 =================================
 Model                : PCM.
 Atomic radii         : UFF (Universal Force Field).
 Polarization charges : Total charges.
 Charge compensation  : None.
 Solution method      : Matrix inversion.
 Cavity type          : Scaled VdW (van der Waals Surface) (Alpha=1.100).
 Cavity algorithm     : GePol (No added spheres)
                        Default sphere list used, NSphG=   22.
                        Lebedev-Laikov grids with approx.  5.0 points / Ang**2.
                        Smoothing algorithm: York/Karplus (Gamma=1.0000).
                        Polarization charges: spherical gaussians, with
                                              point-specific exponents (IZeta= 3).
                        Self-potential: point-specific (ISelfS= 7).
                        Self-field    : sphere-specific E.n sum rule (ISelfD= 2).
 1st derivatives      : Analytical E(r).r(x)/FMM algorithm (CHGder, D1EAlg=3).
                        Cavity 1st derivative terms included.
 2nd derivatives      : Analytical E(r).r(xy)/FMM algorithm (CHGder, D2EAlg=3).
                        Cavity 2nd derivative terms included.
 Solvent              : Cis-Decalin, Eps=   2.213900 Eps(inf)=   2.193361
 ------------------------------------------------------------------------------
 One-electron integrals computed using PRISM.
 NBasis=   252 RedAO= T EigKep=  5.32D-04  NBF=   252
 NBsUse=   252 1.00D-06 EigRej= -1.00D+00 NBFU=   252
 ExpMin= 1.03D-01 ExpMax= 4.56D+03 ExpMxC= 6.82D+02 IAcc=3 IRadAn=         5 AccDes= 0.00D+00
 Harris functional with IExCor=  402 and IRadAn=       5 diagonalized for initial guess.
 HarFok:  IExCor=  402 AccDes= 0.00D+00 IRadAn=         5 IDoV= 1 UseB2=F ITyADJ=14
 ICtDFT=  3500011 ScaDFX=  1.000000  1.000000  1.000000  1.000000
 FoFCou: FMM=F IPFlag=           0 FMFlag=      100000 FMFlg1=           0
         NFxFlg=           0 DoJE=T BraDBF=F KetDBF=T FulRan=T
         wScrn=  0.000000 ICntrl=       500 IOpCl=  0 I1Cent=   200000004 NGrid=           0
         NMat0=    1 NMatS0=      1 NMatT0=    0 NMatD0=    1 NMtDS0=    0 NMtDT0=    0
 Petite list used in FoFCou.
 Requested convergence on RMS density matrix=1.00D-08 within 128 cycles.
 Requested convergence on MAX density matrix=1.00D-06.
 Requested convergence on             energy=1.00D-06.
 No special actions if energy rises.
 Inv3:  Mode=1 IEnd=     7105563.
 Iteration    1 A*A^-1 deviation from unit magnitude is 7.99D-15 for   1528.
 Iteration    1 A*A^-1 deviation from orthogonality  is 2.21D-15 for   1531   1008.
 Iteration    1 A^-1*A deviation from unit magnitude is 7.99D-15 for   1528.
 Iteration    1 A^-1*A deviation from orthogonality  is 3.15D-15 for   1527    965.
 Error on total polarization charges =  0.00625
 SCF Done:  E(RB3LYP) =  -388.319649719     A.U. after   12 cycles
            NFock= 12  Conv=0.35D-08     -V/T= 2.0047
 DoSCS=F DFT=T ScalE2(SS,OS)=  1.000000  1.000000
 Range of M.O.s used for correlation:     1   252
 NBasis=   252 NAE=    36 NBE=    36 NFC=     0 NFV=     0
 NROrb=    252 NOA=    36 NOB=    36 NVA=   216 NVB=   216
 Symmetrizing basis deriv contribution to polar:
 IMax=3 JMax=2 DiffMx= 0.00D+00
 G2DrvN: will do    23 centers at a time, making    1 passes.
 Calling FoFCou, ICntrl=  3107 FMM=F I1Cent=   0 AccDes= 0.00D+00.
 NEqPCM:  Using equilibrium solvation (IEInf=0, Eps=   2.2139, EpsInf=   2.1934)
 G2PCM: DoFxE=T DoFxN=T DoGrad=T DoDP/DQ/DG/TGxP=FFFF NFrqRd=   0 IEInf=0 SqF1=F DoCFld=F IF1Alg=4.
 End of G2Drv F.D. properties file   721 does not exist.
 End of G2Drv F.D. properties file   722 does not exist.
 End of G2Drv F.D. properties file   788 does not exist.
          IDoAtm=1111111111111111111111
 NEqPCM:  Using equilibrium solvation (IEInf=0, Eps=   2.2139, EpsInf=   2.1934)
          Differentiating once with respect to electric field.
                with respect to dipole field.
          Differentiating once with respect to nuclear coordinates.
 Keep R1 ints in memory in canonical form, NReq=612588626.
          There are    69 degrees of freedom in the 1st order CPHF.  IDoFFX=6 NUNeed=     3.
     66 vectors produced by pass  0 Test12= 1.13D-14 1.45D-09 XBig12= 2.71D+02 1.44D+01.
 AX will form    66 AO Fock derivatives at one time.
     66 vectors produced by pass  1 Test12= 1.13D-14 1.45D-09 XBig12= 4.01D+01 1.19D+00.
     66 vectors produced by pass  2 Test12= 1.13D-14 1.45D-09 XBig12= 3.65D-01 1.13D-01.
     66 vectors produced by pass  3 Test12= 1.13D-14 1.45D-09 XBig12= 9.32D-04 5.65D-03.
     66 vectors produced by pass  4 Test12= 1.13D-14 1.45D-09 XBig12= 1.68D-06 2.26D-04.
     48 vectors produced by pass  5 Test12= 1.13D-14 1.45D-09 XBig12= 1.79D-09 4.87D-06.
      8 vectors produced by pass  6 Test12= 1.13D-14 1.45D-09 XBig12= 1.80D-12 2.16D-07.
      3 vectors produced by pass  7 Test12= 1.13D-14 1.45D-09 XBig12= 1.73D-15 5.25D-09.
 InvSVY:  IOpt=1 It=  1 EMax= 2.49D-14
 Solved reduced A of dimension   389 with    69 vectors.
 Isotropic polarizability for W=    0.000000      132.05 Bohr**3.
 End of Minotr F.D. properties file   721 does not exist.
 End of Minotr F.D. properties file   722 does not exist.
 End of Minotr F.D. properties file   788 does not exist.

 **********************************************************************

            Population analysis using the SCF density.

 **********************************************************************

 Orbital symmetries:
       Occupied  (A) (A) (A) (A) (A) (A) (A) (A) (A) (A) (A) (A)
                 (A) (A) (A) (A) (A) (A) (A) (A) (A) (A) (A) (A)
                 (A) (A) (A) (A) (A) (A) (A) (A) (A) (A) (A) (A)
       Virtual   (A) (A) (A) (A) (A) (A) (A) (A) (A) (A) (A) (A)
                 (A) (A) (A) (A) (A) (A) (A) (A) (A) (A) (A) (A)
                 (A) (A) (A) (A) (A) (A) (A) (A) (A) (A) (A) (A)
                 (A) (A) (A) (A) (A) (A) (A) (A) (A) (A) (A) (A)
                 (A) (A) (A) (A) (A) (A) (A) (A) (A) (A) (A) (A)
                 (A) (A) (A) (A) (A) (A) (A) (A) (A) (A) (A) (A)
                 (A) (A) (A) (A) (A) (A) (A) (A) (A) (A) (A) (A)
                 (A) (A) (A) (A) (A) (A) (A) (A) (A) (A) (A) (A)
                 (A) (A) (A) (A) (A) (A) (A) (A) (A) (A) (A) (A)
                 (A) (A) (A) (A) (A) (A) (A) (A) (A) (A) (A) (A)
                 (A) (A) (A) (A) (A) (A) (A) (A) (A) (A) (A) (A)
                 (A) (A) (A) (A) (A) (A) (A) (A) (A) (A) (A) (A)
                 (A) (A) (A) (A) (A) (A) (A) (A) (A) (A) (A) (A)
                 (A) (A) (A) (A) (A) (A) (A) (A) (A) (A) (A) (A)
                 (A) (A) (A) (A) (A) (A) (A) (A) (A) (A) (A) (A)
                 (A) (A) (A) (A) (A) (A) (A) (A) (A) (A) (A) (A)
                 (A) (A) (A) (A) (A) (A) (A) (A) (A) (A) (A) (A)
                 (A) (A) (A) (A) (A) (A) (A) (A) (A) (A) (A) (A)
 The electronic state is 1-A.
 Alpha  occ. eigenvalues --  -10.17750 -10.17749 -10.16890 -10.16890 -10.16390
 Alpha  occ. eigenvalues --  -10.16390 -10.16065 -10.16064 -10.15927 -10.15926
 Alpha  occ. eigenvalues --   -0.86788  -0.83993  -0.71734  -0.70625  -0.69132
 Alpha  occ. eigenvalues --   -0.68417  -0.55826  -0.55055  -0.53184  -0.51635
 Alpha  occ. eigenvalues --   -0.51557  -0.50102  -0.45175  -0.42181  -0.39313
 Alpha  occ. eigenvalues --   -0.38103  -0.37470  -0.37021  -0.36341  -0.36117
 Alpha  occ. eigenvalues --   -0.35682  -0.34399  -0.31767  -0.26028  -0.25970
 Alpha  occ. eigenvalues --   -0.18345
 Alpha virt. eigenvalues --   -0.03742   0.02540   0.03266   0.04689   0.07379
 Alpha virt. eigenvalues --    0.07791   0.07808   0.09614   0.09768   0.10796
 Alpha virt. eigenvalues --    0.10970   0.12307   0.12773   0.15025   0.15087
 Alpha virt. eigenvalues --    0.17424   0.18678   0.19885   0.21878   0.22897
 Alpha virt. eigenvalues --    0.26688   0.27635   0.30626   0.31208   0.31830
 Alpha virt. eigenvalues --    0.32692   0.35415   0.38146   0.38227   0.38770
 Alpha virt. eigenvalues --    0.39471   0.40567   0.41397   0.42119   0.43294
 Alpha virt. eigenvalues --    0.44570   0.44789   0.45719   0.46488   0.49525
 Alpha virt. eigenvalues --    0.50040   0.52151   0.54969   0.55418   0.56190
 Alpha virt. eigenvalues --    0.56384   0.58800   0.59154   0.59760   0.59818
 Alpha virt. eigenvalues --    0.60473   0.61441   0.61966   0.63624   0.64095
 Alpha virt. eigenvalues --    0.64582   0.65643   0.66336   0.68328   0.70131
 Alpha virt. eigenvalues --    0.70170   0.70858   0.71539   0.74118   0.76014
 Alpha virt. eigenvalues --    0.78954   0.80821   0.82939   0.85941   0.87447
 Alpha virt. eigenvalues --    0.88206   0.91263   0.92912   0.98028   0.99109
 Alpha virt. eigenvalues --    1.04487   1.05388   1.05583   1.09318   1.14578
 Alpha virt. eigenvalues --    1.14949   1.18153   1.19212   1.22205   1.22506
 Alpha virt. eigenvalues --    1.25837   1.29347   1.33650   1.38699   1.41610
 Alpha virt. eigenvalues --    1.46522   1.48139   1.49097   1.49862   1.51759
 Alpha virt. eigenvalues --    1.51879   1.52868   1.54349   1.55963   1.57320
 Alpha virt. eigenvalues --    1.58470   1.59414   1.60126   1.60720   1.61355
 Alpha virt. eigenvalues --    1.63980   1.64507   1.67017   1.67791   1.71148
 Alpha virt. eigenvalues --    1.71861   1.73061   1.74458   1.76488   1.77656
 Alpha virt. eigenvalues --    1.78038   1.82284   1.82357   1.82652   1.83916
 Alpha virt. eigenvalues --    1.84639   1.86553   1.86906   1.87758   1.89081
 Alpha virt. eigenvalues --    1.92271   1.92290   1.94256   1.97768   1.98172
 Alpha virt. eigenvalues --    2.00002   2.00405   2.02445   2.05497   2.08196
 Alpha virt. eigenvalues --    2.13171   2.13216   2.16233   2.17265   2.18078
 Alpha virt. eigenvalues --    2.22379   2.22929   2.26810   2.30642   2.33263
 Alpha virt. eigenvalues --    2.34887   2.36793   2.37212   2.39960   2.41913
 Alpha virt. eigenvalues --    2.44669   2.45658   2.49133   2.50443   2.51597
 Alpha virt. eigenvalues --    2.53203   2.60162   2.60257   2.60538   2.62746
 Alpha virt. eigenvalues --    2.63319   2.67705   2.68585   2.69718   2.70708
 Alpha virt. eigenvalues --    2.71201   2.74354   2.74824   2.77305   2.78651
 Alpha virt. eigenvalues --    2.81150   2.84209   2.87681   2.91766   2.92095
 Alpha virt. eigenvalues --    2.92245   2.93430   2.96023   3.00278   3.05040
 Alpha virt. eigenvalues --    3.09107   3.09248   3.10965   3.18124   3.19656
 Alpha virt. eigenvalues --    3.30840   3.33161   3.38176   3.43039   3.44449
 Alpha virt. eigenvalues --    3.46599   3.47417   3.54546   3.59543   3.77298
 Alpha virt. eigenvalues --    3.78947   4.03082   4.03845   4.06437   4.08895
 Alpha virt. eigenvalues --    4.09294   4.12376   4.16063   4.19369   4.50314
 Alpha virt. eigenvalues --    4.52863  23.63303  23.75308  23.89052  23.89604
 Alpha virt. eigenvalues --   23.90597  23.98934  24.10795  24.11314  24.19983
 Alpha virt. eigenvalues --   24.20337
          Condensed to atoms (all electrons):
               1          2          3          4          5          6
     1  C    4.867645   0.462805  -0.076977  -0.009052   0.006456   0.559029
     2  C    0.462805   5.039902   0.494293  -0.057749  -0.054351  -0.090978
     3  C   -0.076977   0.494293   5.209663   0.117693  -0.057750  -0.091494
     4  C   -0.009052  -0.057749   0.117693   5.209662   0.494294  -0.015622
     5  C    0.006456  -0.054351  -0.057750   0.494294   5.039907   0.040790
     6  C    0.559029  -0.090978  -0.091494  -0.015622   0.040790   5.092419
     7  C   -0.015496   0.006457  -0.009051  -0.076977   0.462801  -0.010849
     8  C   -0.010847   0.040786  -0.015620  -0.091494  -0.090977  -0.003260
     9  C    0.000524  -0.012925  -0.038755   0.375298  -0.093824   0.000913
    10  C   -0.089638  -0.093823   0.375297  -0.038756  -0.012925   0.370316
    11  H    0.421352  -0.044613   0.006597  -0.000183   0.000178  -0.045255
    12  H   -0.037061   0.420116  -0.041493  -0.001511   0.000263   0.006374
    13  H    0.007773  -0.036089   0.408399  -0.019718   0.003712   0.006174
    14  H   -0.000138   0.003712  -0.019718   0.408399  -0.036089  -0.000222
    15  H   -0.000439   0.000263  -0.001511  -0.041493   0.420115   0.002506
    16  H   -0.038101   0.008407   0.005138   0.000297  -0.001601   0.417101
    17  H    0.001957   0.000178  -0.000183   0.006597  -0.044613   0.000601
    18  H    0.000124  -0.001601   0.000296   0.005138   0.008407   0.000038
    19  H   -0.000229   0.003450   0.006686  -0.030693  -0.000583  -0.000236
    20  H    0.000835  -0.003672  -0.003784  -0.042669   0.008231   0.000124
    21  H   -0.002116  -0.000584  -0.030693   0.006687   0.003450  -0.036062
    22  H    0.005625   0.008231  -0.042669  -0.003784  -0.003672  -0.036582
               7          8          9         10         11         12
     1  C   -0.015496  -0.010847   0.000524  -0.089638   0.421352  -0.037061
     2  C    0.006457   0.040786  -0.012925  -0.093823  -0.044613   0.420116
     3  C   -0.009051  -0.015620  -0.038755   0.375297   0.006597  -0.041493
     4  C   -0.076977  -0.091494   0.375298  -0.038756  -0.000183  -0.001511
     5  C    0.462801  -0.090977  -0.093824  -0.012925   0.000178   0.000263
     6  C   -0.010849  -0.003260   0.000913   0.370316  -0.045255   0.006374
     7  C    4.867643   0.559034  -0.089637   0.000524   0.001957  -0.000439
     8  C    0.559034   5.092412   0.370316   0.000913   0.000601   0.002506
     9  C   -0.089637   0.370316   4.891602   0.004101  -0.000080  -0.000028
    10  C    0.000524   0.000913   0.004101   4.891605   0.008687   0.006884
    11  H    0.001957   0.000601  -0.000080   0.008687   0.573284  -0.002918
    12  H   -0.000439   0.002506  -0.000028   0.006884  -0.002918   0.552055
    13  H   -0.000138  -0.000222  -0.002826  -0.030029  -0.000278  -0.003976
    14  H    0.007773   0.006173  -0.030029  -0.002826   0.000032  -0.000070
    15  H   -0.037061   0.006374   0.006884  -0.000028  -0.000046   0.000003
    16  H    0.000124   0.000038  -0.000001  -0.037802  -0.004953  -0.000317
    17  H    0.421352  -0.045255   0.008687  -0.000080   0.000122  -0.000046
    18  H   -0.038101   0.417101  -0.037802  -0.000001   0.000020   0.000280
    19  H   -0.002116  -0.036062   0.386010  -0.000255   0.000000   0.000110
    20  H    0.005625  -0.036581   0.409314   0.000528  -0.000012  -0.000118
    21  H   -0.000229  -0.000236  -0.000255   0.386009  -0.000446  -0.000335
    22  H    0.000835   0.000124   0.000528   0.409314  -0.000263  -0.000289
              13         14         15         16         17         18
     1  C    0.007773  -0.000138  -0.000439  -0.038101   0.001957   0.000124
     2  C   -0.036089   0.003712   0.000263   0.008407   0.000178  -0.001601
     3  C    0.408399  -0.019718  -0.001511   0.005138  -0.000183   0.000296
     4  C   -0.019718   0.408399  -0.041493   0.000297   0.006597   0.005138
     5  C    0.003712  -0.036089   0.420115  -0.001601  -0.044613   0.008407
     6  C    0.006174  -0.000222   0.002506   0.417101   0.000601   0.000038
     7  C   -0.000138   0.007773  -0.037061   0.000124   0.421352  -0.038101
     8  C   -0.000222   0.006173   0.006374   0.000038  -0.045255   0.417101
     9  C   -0.002826  -0.030029   0.006884  -0.000001   0.008687  -0.037802
    10  C   -0.030029  -0.002826  -0.000028  -0.037802  -0.000080  -0.000001
    11  H   -0.000278   0.000032  -0.000046  -0.004953   0.000122   0.000020
    12  H   -0.003976  -0.000070   0.000003  -0.000317  -0.000046   0.000280
    13  H    0.548074  -0.002960  -0.000070  -0.000312   0.000032   0.000020
    14  H   -0.002960   0.548073  -0.003976   0.000020  -0.000278  -0.000312
    15  H   -0.000070  -0.003976   0.552053   0.000280  -0.002918  -0.000317
    16  H   -0.000312   0.000020   0.000280   0.559188   0.000020  -0.000000
    17  H    0.000032  -0.000278  -0.002918   0.000020   0.573284  -0.004953
    18  H    0.000020  -0.000312  -0.000317  -0.000000  -0.004953   0.559188
    19  H   -0.000335  -0.001799  -0.000335   0.000001  -0.000446   0.000344
    20  H    0.002199  -0.000801  -0.000289  -0.000005  -0.000263  -0.001955
    21  H   -0.001799  -0.000335   0.000110   0.000344   0.000000   0.000001
    22  H   -0.000801   0.002199  -0.000118  -0.001955  -0.000012  -0.000005
              19         20         21         22
     1  C   -0.000229   0.000835  -0.002116   0.005625
     2  C    0.003450  -0.003672  -0.000584   0.008231
     3  C    0.006686  -0.003784  -0.030693  -0.042669
     4  C   -0.030693  -0.042669   0.006687  -0.003784
     5  C   -0.000583   0.008231   0.003450  -0.003672
     6  C   -0.000236   0.000124  -0.036062  -0.036582
     7  C   -0.002116   0.005625  -0.000229   0.000835
     8  C   -0.036062  -0.036581  -0.000236   0.000124
     9  C    0.386010   0.409314  -0.000255   0.000528
    10  C   -0.000255   0.000528   0.386009   0.409314
    11  H    0.000000  -0.000012  -0.000446  -0.000263
    12  H    0.000110  -0.000118  -0.000335  -0.000289
    13  H   -0.000335   0.002199  -0.001799  -0.000801
    14  H   -0.001799  -0.000801  -0.000335   0.002199
    15  H   -0.000335  -0.000289   0.000110  -0.000118
    16  H    0.000001  -0.000005   0.000344  -0.001955
    17  H   -0.000446  -0.000263   0.000000  -0.000012
    18  H    0.000344  -0.001955   0.000001  -0.000005
    19  H    0.576615  -0.032153  -0.000001  -0.000053
    20  H   -0.032153   0.576636  -0.000053  -0.000017
    21  H   -0.000001  -0.000053   0.576614  -0.032154
    22  H   -0.000053  -0.000017  -0.032154   0.576637
 Mulliken charges:
               1
     1  C   -0.054030
     2  C   -0.092214
     3  C   -0.194364
     4  C   -0.194364
     5  C   -0.092217
     6  C   -0.165827
     7  C   -0.054030
     8  C   -0.165825
     9  C   -0.148016
    10  C   -0.148016
    11  H    0.086216
    12  H    0.100012
    13  H    0.123171
    14  H    0.123172
    15  H    0.100013
    16  H    0.094090
    17  H    0.086216
    18  H    0.094090
    19  H    0.132080
    20  H    0.118881
    21  H    0.132081
    22  H    0.118881
 Sum of Mulliken charges =  -0.00000
 Mulliken charges with hydrogens summed into heavy atoms:
               1
     1  C    0.032186
     2  C    0.007797
     3  C   -0.071193
     4  C   -0.071192
     5  C    0.007796
     6  C   -0.071737
     7  C    0.032186
     8  C   -0.071734
     9  C    0.102945
    10  C    0.102946
 APT charges:
               1
     1  C   -0.013157
     2  C   -0.140358
     3  C    0.084703
     4  C    0.084693
     5  C   -0.140350
     6  C   -0.037286
     7  C   -0.013155
     8  C   -0.037293
     9  C    0.011516
    10  C    0.011515
    11  H    0.041047
    12  H    0.049514
    13  H    0.005097
    14  H    0.005097
    15  H    0.049513
    16  H    0.020667
    17  H    0.041046
    18  H    0.020670
    19  H   -0.027559
    20  H    0.005820
    21  H   -0.027559
    22  H    0.005819
 Sum of APT charges =   0.00000
 APT charges with hydrogens summed into heavy atoms:
               1
     1  C    0.027890
     2  C   -0.090844
     3  C    0.089800
     4  C    0.089790
     5  C   -0.090838
     6  C   -0.016619
     7  C    0.027891
     8  C   -0.016623
     9  C   -0.010223
    10  C   -0.010225
 Electronic spatial extent (au):  <R**2>=           1177.8424
 Charge=             -0.0000 electrons
 Dipole moment (field-independent basis, Debye):
    X=             -0.0000    Y=             -0.5828    Z=             -0.0000  Tot=              0.5828
 Quadrupole moment (field-independent basis, Debye-Ang):
   XX=            -62.8130   YY=            -56.9689   ZZ=            -59.7893
   XY=              0.0001   XZ=             -4.0216   YZ=              0.0000
 Traceless Quadrupole moment (field-independent basis, Debye-Ang):
   XX=             -2.9559   YY=              2.8882   ZZ=              0.0677
   XY=              0.0001   XZ=             -4.0216   YZ=              0.0000
 Octapole moment (field-independent basis, Debye-Ang**2):
  XXX=             -0.0002  YYY=              1.9742  ZZZ=              0.0000  XYY=             -0.0000
  XXY=             -2.5260  XXZ=             -0.0000  XZZ=             -0.0000  YZZ=              1.1821
  YYZ=             -0.0001  XYZ=             -0.9621
 Hexadecapole moment (field-independent basis, Debye-Ang**3):
 XXXX=           -902.3647 YYYY=           -389.4237 ZZZZ=           -348.3573 XXXY=              0.0001
 XXXZ=            -26.4057 YYYX=             -0.0000 YYYZ=              0.0001 ZZZX=            -18.3136
 ZZZY=             -0.0000 XXYY=           -210.9389 XXZZ=           -213.8236 YYZZ=           -123.1777
 XXYZ=              0.0003 YYXZ=             -1.4318 ZZXY=              0.0004
 N-N= 5.209246493160D+02 E-N=-1.942479512823D+03  KE= 3.865140768643D+02
  Exact polarizability: 159.682   0.000 118.899  -3.929  -0.000 117.571
 Approx polarizability: 242.073   0.001 174.481   0.015  -0.001 196.153
 D2PCM: PCM CHGder 2nd derivatives, FixD1E=F FixD2E=F DoIter=F DoCFld=F I1PDM=0
 Calling FoFJK, ICntrl=    100127 FMM=F ISym2X=0 I1Cent= 0 IOpClX= 0 NMat=1 NMatS=1 NMatT=0.
 Full mass-weighted force constant matrix:
 Low frequencies --- -446.8262  -27.0250  -25.9825   -6.3948   -0.0007   -0.0005
 Low frequencies ---   -0.0002  113.2618  136.7814
 ******    1 imaginary frequencies (negative Signs) ****** 
 Diagonal vibrational polarizability:
        7.9812876       2.2747351       6.8500961
 Harmonic frequencies (cm**-1), IR intensities (KM/Mole), Raman scattering
 activities (A**4/AMU), depolarization ratios for plane and unpolarized
 incident light, reduced masses (AMU), force constants (mDyne/A),
 and normal coordinates:
                      1                      2                      3
                      A                      A                      A
 Frequencies --   -446.8262               113.2426               136.7443
 Red. masses --      9.2611                 4.4714                 3.3151
 Frc consts  --      1.0894                 0.0338                 0.0365
 IR Inten    --      0.7197                 0.8724                 0.0403
  Atom  AN      X      Y      Z        X      Y      Z        X      Y      Z
     1   6     0.02   0.04  -0.06     0.03   0.06   0.01     0.08   0.03  -0.13
     2   6     0.11  -0.07   0.05    -0.19   0.09  -0.10    -0.01   0.14  -0.04
     3   6     0.45  -0.01   0.36    -0.11   0.08  -0.08    -0.06   0.07   0.07
     4   6    -0.45  -0.01  -0.36    -0.11  -0.08  -0.08     0.06   0.07  -0.07
     5   6    -0.11  -0.07  -0.05    -0.19  -0.09  -0.10     0.01   0.14   0.04
     6   6     0.09   0.02   0.04     0.23   0.04   0.13     0.10  -0.12  -0.06
     7   6    -0.02   0.04   0.06     0.03  -0.06   0.01    -0.08   0.03   0.13
     8   6    -0.09   0.02  -0.04     0.23  -0.04   0.13    -0.10  -0.12   0.06
     9   6    -0.04   0.02  -0.04     0.02  -0.04   0.04    -0.00  -0.11  -0.09
    10   6     0.04   0.02   0.04     0.02   0.04   0.04     0.00  -0.11   0.09
    11   1    -0.10   0.04  -0.10     0.08   0.06   0.03     0.14   0.07  -0.24
    12   1    -0.04   0.02  -0.03    -0.19   0.08  -0.11    -0.02   0.26  -0.06
    13   1     0.01  -0.07   0.06    -0.13   0.09  -0.06    -0.14   0.11   0.15
    14   1    -0.01  -0.07  -0.06    -0.13  -0.09  -0.06     0.14   0.11  -0.15
    15   1     0.04   0.02   0.03    -0.19  -0.08  -0.11     0.02   0.26   0.06
    16   1     0.06  -0.00   0.00     0.39   0.01   0.22     0.18  -0.23  -0.09
    17   1     0.10   0.04   0.10     0.08  -0.06   0.03    -0.14   0.07   0.24
    18   1    -0.06  -0.00  -0.00     0.39  -0.01   0.22    -0.18  -0.23   0.09
    19   1    -0.15   0.03   0.20    -0.06   0.13   0.08     0.03  -0.13  -0.17
    20   1     0.14   0.01  -0.08     0.04  -0.14  -0.02    -0.02  -0.19  -0.13
    21   1     0.15   0.03  -0.20    -0.06  -0.13   0.08    -0.03  -0.13   0.17
    22   1    -0.14   0.01   0.08     0.04   0.14  -0.02     0.02  -0.19   0.13
                      4                      5                      6
                      A                      A                      A
 Frequencies --    177.9693               262.4335               318.4797
 Red. masses --      4.0095                 3.2923                 3.5964
 Frc consts  --      0.0748                 0.1336                 0.2149
 IR Inten    --      0.4786                 0.0236                 0.0904
  Atom  AN      X      Y      Z        X      Y      Z        X      Y      Z
     1   6     0.21  -0.03   0.11     0.16   0.06   0.06     0.11  -0.01   0.11
     2   6     0.10  -0.02   0.01     0.07   0.09   0.05     0.06   0.03   0.13
     3   6     0.00   0.02  -0.08    -0.06   0.09   0.02    -0.06   0.03   0.12
     4   6    -0.00   0.02   0.08    -0.06  -0.09   0.02     0.06   0.03  -0.12
     5   6    -0.10  -0.02  -0.01     0.07  -0.09   0.05    -0.06   0.03  -0.13
     6   6     0.22   0.01   0.09    -0.02   0.06  -0.03    -0.14  -0.03   0.00
     7   6    -0.21  -0.03  -0.11     0.16  -0.06   0.06    -0.11  -0.01  -0.11
     8   6    -0.22   0.01  -0.09    -0.02  -0.06  -0.03     0.14  -0.03  -0.00
     9   6    -0.03   0.02   0.06    -0.16  -0.06  -0.09     0.18  -0.03  -0.01
    10   6     0.03   0.02  -0.06    -0.16   0.06  -0.09    -0.18  -0.03   0.01
    11   1     0.33  -0.05   0.21     0.35   0.04   0.14     0.27  -0.02   0.16
    12   1     0.07  -0.05  -0.00     0.18   0.08   0.10     0.19   0.03   0.20
    13   1    -0.00   0.01  -0.11    -0.03   0.10   0.05    -0.14   0.04   0.10
    14   1     0.00   0.01   0.11    -0.03  -0.10   0.05     0.14   0.04  -0.10
    15   1    -0.07  -0.05   0.00     0.18  -0.08   0.10    -0.19   0.03  -0.20
    16   1     0.31   0.02   0.16    -0.03   0.04  -0.05    -0.20  -0.05  -0.06
    17   1    -0.33  -0.05  -0.21     0.35  -0.04   0.14    -0.27  -0.02  -0.16
    18   1    -0.31   0.02  -0.16    -0.03  -0.04  -0.05     0.20  -0.05   0.06
    19   1     0.02  -0.14   0.09    -0.14   0.03  -0.23     0.13  -0.03   0.11
    20   1     0.02   0.14   0.11    -0.30  -0.12  -0.09     0.31  -0.04  -0.05
    21   1    -0.02  -0.14  -0.09    -0.14  -0.03  -0.23    -0.13  -0.03  -0.11
    22   1    -0.02   0.14  -0.11    -0.30   0.12  -0.09    -0.31  -0.04   0.05
                      7                      8                      9
                      A                      A                      A
 Frequencies --    417.7519               444.9261               556.5623
 Red. masses --      1.9867                 1.8419                 2.7919
 Frc consts  --      0.2043                 0.2148                 0.5095
 IR Inten    --      0.1435                 0.5704                 1.7135
  Atom  AN      X      Y      Z        X      Y      Z        X      Y      Z
     1   6    -0.06   0.00  -0.02     0.08  -0.01   0.04    -0.13   0.04  -0.06
     2   6    -0.11   0.02  -0.04     0.00   0.00  -0.02     0.17  -0.03   0.11
     3   6    -0.00   0.01   0.02    -0.08   0.02  -0.07    -0.07   0.02  -0.02
     4   6     0.00   0.01  -0.02    -0.08  -0.02  -0.07     0.07   0.02   0.02
     5   6     0.11   0.02   0.04     0.00  -0.00  -0.02    -0.17  -0.03  -0.11
     6   6     0.06  -0.02   0.05    -0.08   0.02  -0.06     0.08  -0.01   0.07
     7   6     0.06   0.00   0.02     0.08   0.01   0.04     0.13   0.04   0.06
     8   6    -0.06  -0.02  -0.05    -0.08  -0.02  -0.06    -0.08  -0.01  -0.07
     9   6     0.12  -0.01   0.08     0.05  -0.02   0.07     0.02  -0.01  -0.02
    10   6    -0.12  -0.01  -0.08     0.05   0.02   0.07    -0.02  -0.01   0.02
    11   1    -0.08   0.01  -0.05     0.20  -0.03   0.13    -0.36   0.08  -0.21
    12   1    -0.21   0.05  -0.09    -0.03   0.01  -0.04     0.35  -0.06   0.20
    13   1    -0.06   0.01  -0.01    -0.12   0.02  -0.09    -0.03   0.01  -0.02
    14   1     0.06   0.01   0.01    -0.12  -0.02  -0.09     0.03   0.01   0.02
    15   1     0.21   0.05   0.09    -0.03  -0.01  -0.04    -0.35  -0.06  -0.20
    16   1     0.13  -0.02   0.10    -0.07   0.01  -0.06    -0.04  -0.01  -0.01
    17   1     0.08   0.01   0.05     0.20   0.03   0.13     0.36   0.08   0.21
    18   1    -0.13  -0.02  -0.10    -0.07  -0.01  -0.06     0.04  -0.01   0.01
    19   1     0.10  -0.23   0.35     0.01  -0.23   0.39     0.08  -0.20   0.00
    20   1     0.37   0.16   0.12     0.35   0.17   0.11     0.07   0.12   0.04
    21   1    -0.10  -0.23  -0.35     0.01   0.23   0.39    -0.08  -0.20  -0.00
    22   1    -0.37   0.16  -0.12     0.35  -0.17   0.11    -0.07   0.12  -0.04
                     10                     11                     12
                      A                      A                      A
 Frequencies --    593.6253               706.3028               707.4187
 Red. masses --      2.4478                 1.2671                 1.2001
 Frc consts  --      0.5082                 0.3724                 0.3538
 IR Inten    --      2.9591                 1.4020                75.3035
  Atom  AN      X      Y      Z        X      Y      Z        X      Y      Z
     1   6    -0.08   0.04  -0.06     0.05   0.01   0.04    -0.05  -0.02  -0.04
     2   6     0.14  -0.03   0.06    -0.01   0.02   0.00     0.00  -0.01   0.00
     3   6    -0.12   0.03  -0.07     0.00   0.01  -0.01     0.02  -0.01   0.02
     4   6    -0.12  -0.03  -0.07    -0.00   0.01   0.01     0.02   0.01   0.02
     5   6     0.14   0.03   0.06     0.01   0.02  -0.00     0.00   0.01   0.00
     6   6     0.07   0.01   0.03     0.01  -0.02   0.03    -0.02   0.02  -0.04
     7   6    -0.08  -0.04  -0.06    -0.05   0.01  -0.04    -0.05   0.02  -0.04
     8   6     0.07  -0.01   0.03    -0.01  -0.02  -0.04    -0.02  -0.02  -0.04
     9   6    -0.02  -0.01   0.03    -0.06  -0.03   0.01    -0.04  -0.02  -0.00
    10   6    -0.02   0.01   0.03     0.06  -0.03  -0.01    -0.04   0.02  -0.00
    11   1    -0.23   0.06  -0.14    -0.17   0.05  -0.12     0.21  -0.06   0.13
    12   1     0.45  -0.10   0.22    -0.17   0.03  -0.08     0.15  -0.02   0.08
    13   1    -0.10   0.02  -0.08     0.01   0.03   0.03     0.04  -0.03  -0.01
    14   1    -0.10  -0.02  -0.08    -0.01   0.03  -0.03     0.04   0.03  -0.01
    15   1     0.45   0.10   0.22     0.17   0.03   0.08     0.15   0.02   0.08
    16   1    -0.01  -0.00  -0.03    -0.52   0.04  -0.28     0.52  -0.04   0.30
    17   1    -0.23  -0.06  -0.14     0.17   0.05   0.12     0.20   0.06   0.13
    18   1    -0.01   0.00  -0.03     0.52   0.04   0.29     0.52   0.04   0.30
    19   1    -0.12   0.08   0.19    -0.05  -0.15   0.11    -0.01  -0.14   0.05
    20   1     0.11  -0.05  -0.02     0.05   0.09   0.05     0.03   0.09   0.04
    21   1    -0.12  -0.08   0.19     0.05  -0.15  -0.11    -0.01   0.14   0.05
    22   1     0.11   0.05  -0.02    -0.05   0.09  -0.05     0.03  -0.09   0.04
                     13                     14                     15
                      A                      A                      A
 Frequencies --    762.8832               764.8962               800.1211
 Red. masses --      1.3132                 1.4042                 3.2556
 Frc consts  --      0.4503                 0.4840                 1.2280
 IR Inten    --     83.3348                 0.2027                 0.0073
  Atom  AN      X      Y      Z        X      Y      Z        X      Y      Z
     1   6     0.01  -0.01   0.00    -0.02   0.03   0.02     0.05   0.05  -0.02
     2   6    -0.10   0.02  -0.04    -0.07   0.05  -0.04    -0.00  -0.05  -0.15
     3   6     0.02   0.01   0.00     0.03  -0.01  -0.00    -0.04  -0.14   0.04
     4   6     0.02  -0.01   0.00    -0.03  -0.01   0.00     0.04  -0.14  -0.04
     5   6    -0.10  -0.02  -0.04     0.07   0.05   0.04     0.00  -0.05   0.15
     6   6    -0.00  -0.02   0.01    -0.01  -0.03   0.04     0.09   0.07   0.01
     7   6     0.01   0.01   0.00     0.02   0.03  -0.02    -0.05   0.05   0.02
     8   6    -0.00   0.02   0.01     0.01  -0.03  -0.04    -0.09   0.07  -0.01
     9   6     0.02   0.02  -0.01    -0.04  -0.04   0.02     0.14   0.07  -0.10
    10   6     0.02  -0.02  -0.01     0.04  -0.04  -0.02    -0.14   0.07   0.10
    11   1     0.14  -0.01   0.04     0.12   0.03   0.04    -0.10   0.01   0.10
    12   1     0.51  -0.21   0.28     0.50  -0.15   0.26     0.20  -0.04  -0.05
    13   1     0.15   0.04   0.12     0.24   0.05   0.21     0.16  -0.12   0.15
    14   1     0.15  -0.04   0.12    -0.24   0.05  -0.20    -0.16  -0.12  -0.15
    15   1     0.51   0.21   0.28    -0.50  -0.15  -0.26    -0.20  -0.04   0.05
    16   1    -0.18   0.01  -0.08    -0.02  -0.02   0.04    -0.25  -0.06  -0.34
    17   1     0.14   0.01   0.04    -0.12   0.03  -0.04     0.10   0.01  -0.10
    18   1    -0.18  -0.01  -0.08     0.02  -0.02  -0.04     0.25  -0.06   0.34
    19   1     0.02  -0.01   0.02    -0.06  -0.07   0.09     0.18   0.05  -0.20
    20   1     0.05   0.04  -0.01     0.02   0.05   0.05    -0.00   0.11  -0.06
    21   1     0.02   0.01   0.02     0.06  -0.07  -0.09    -0.18   0.05   0.20
    22   1     0.05  -0.04  -0.01    -0.02   0.05  -0.05     0.00   0.11   0.06
                     16                     17                     18
                      A                      A                      A
 Frequencies --    818.9309               827.8976               835.2746
 Red. masses --      4.2135                 5.2634                 3.6459
 Frc consts  --      1.6649                 2.1255                 1.4987
 IR Inten    --      0.3836                31.9829                 2.3494
  Atom  AN      X      Y      Z        X      Y      Z        X      Y      Z
     1   6    -0.07   0.06   0.06    -0.00  -0.24  -0.06    -0.01   0.19   0.06
     2   6     0.03   0.08   0.08    -0.11   0.01   0.23     0.15   0.02  -0.10
     3   6     0.02   0.16  -0.11    -0.05   0.14   0.03     0.02  -0.08  -0.06
     4   6     0.02  -0.16  -0.11    -0.05  -0.14   0.03    -0.02  -0.08   0.06
     5   6     0.03  -0.08   0.08    -0.11  -0.01   0.23    -0.15   0.02   0.10
     6   6    -0.13  -0.12   0.07     0.09  -0.01  -0.11    -0.12  -0.02   0.09
     7   6    -0.07  -0.06   0.06    -0.00   0.24  -0.06     0.01   0.19  -0.06
     8   6    -0.13   0.12   0.07     0.09   0.01  -0.11     0.12  -0.02  -0.09
     9   6     0.12   0.14  -0.11     0.08  -0.10  -0.08     0.01  -0.11  -0.02
    10   6     0.12  -0.14  -0.11     0.08   0.10  -0.08    -0.01  -0.11   0.02
    11   1     0.19   0.11  -0.06    -0.02  -0.18  -0.23     0.02   0.18   0.11
    12   1    -0.10  -0.09   0.04    -0.10   0.18   0.22    -0.29   0.01  -0.32
    13   1    -0.14   0.21  -0.04     0.01   0.03  -0.21    -0.02   0.01   0.14
    14   1    -0.14  -0.21  -0.04     0.01  -0.03  -0.21     0.02   0.01  -0.14
    15   1    -0.10   0.09   0.04    -0.10  -0.18   0.22     0.29   0.01   0.32
    16   1     0.17  -0.04   0.34    -0.09   0.26  -0.03     0.22  -0.19   0.18
    17   1     0.19  -0.11  -0.06    -0.02   0.18  -0.23    -0.02   0.18  -0.11
    18   1     0.17   0.04   0.34    -0.09  -0.26  -0.03    -0.22  -0.19  -0.18
    19   1     0.12   0.14  -0.12     0.02  -0.02   0.01    -0.07  -0.04   0.10
    20   1     0.07   0.08  -0.13     0.03   0.05   0.01     0.01   0.01   0.04
    21   1     0.12  -0.14  -0.12     0.02   0.02   0.01     0.07  -0.04  -0.10
    22   1     0.07  -0.08  -0.13     0.03  -0.05   0.01    -0.01   0.01  -0.04
                     19                     20                     21
                      A                      A                      A
 Frequencies --    889.2597               914.4653               924.8296
 Red. masses --      1.9019                 1.7918                 1.4674
 Frc consts  --      0.8861                 0.8828                 0.7395
 IR Inten    --     14.9738                14.9082                 1.3133
  Atom  AN      X      Y      Z        X      Y      Z        X      Y      Z
     1   6    -0.01   0.04   0.02    -0.00  -0.00   0.01     0.02   0.01   0.00
     2   6    -0.03  -0.02  -0.03     0.01   0.01   0.01    -0.02  -0.04  -0.06
     3   6     0.09   0.10  -0.06     0.07   0.04  -0.04    -0.02   0.02   0.01
     4   6    -0.09   0.10   0.06     0.07  -0.04  -0.04     0.02   0.02  -0.01
     5   6     0.03  -0.02   0.03     0.01  -0.01   0.01     0.02  -0.04   0.06
     6   6     0.01  -0.05   0.05     0.02  -0.09   0.05    -0.01   0.08  -0.04
     7   6     0.01   0.04  -0.02    -0.00   0.00   0.01    -0.02   0.01  -0.00
     8   6    -0.01  -0.05  -0.05     0.02   0.09   0.05     0.01   0.08   0.04
     9   6     0.09  -0.02   0.03    -0.11  -0.05  -0.04    -0.04  -0.06  -0.04
    10   6    -0.09  -0.02  -0.03    -0.11   0.05  -0.04     0.04  -0.06   0.04
    11   1     0.02   0.06  -0.05    -0.01   0.03  -0.13    -0.11  -0.02   0.10
    12   1     0.04  -0.32   0.02    -0.16  -0.06  -0.07     0.19  -0.16   0.05
    13   1    -0.14   0.05  -0.26     0.41  -0.00  -0.03    -0.54   0.03  -0.13
    14   1     0.14   0.05   0.26     0.41   0.00  -0.03     0.54   0.03   0.13
    15   1    -0.04  -0.32  -0.02    -0.16   0.06  -0.07    -0.19  -0.16  -0.05
    16   1    -0.14  -0.09  -0.07    -0.05  -0.16  -0.05     0.02   0.11   0.00
    17   1    -0.02   0.06   0.05    -0.01  -0.03  -0.13     0.11  -0.02  -0.10
    18   1     0.14  -0.09   0.07    -0.05   0.16  -0.05    -0.02   0.11  -0.00
    19   1     0.19   0.07  -0.33    -0.20  -0.15   0.31    -0.06  -0.14   0.12
    20   1    -0.18  -0.22  -0.02     0.21   0.09  -0.02     0.16  -0.03  -0.06
    21   1    -0.19   0.07   0.33    -0.20   0.15   0.31     0.06  -0.14  -0.12
    22   1     0.18  -0.22   0.02     0.21  -0.09  -0.02    -0.16  -0.03   0.06
                     22                     23                     24
                      A                      A                      A
 Frequencies --    948.8299               951.4738               958.6035
 Red. masses --      1.4280                 1.5186                 1.5093
 Frc consts  --      0.7574                 0.8100                 0.8172
 IR Inten    --      1.6032                 3.8571                 9.5803
  Atom  AN      X      Y      Z        X      Y      Z        X      Y      Z
     1   6     0.09  -0.01   0.04    -0.09  -0.00  -0.02    -0.05   0.02  -0.05
     2   6    -0.02   0.00  -0.01     0.03   0.01  -0.00     0.00  -0.02   0.02
     3   6     0.02   0.00  -0.02    -0.02  -0.01   0.03     0.01   0.00  -0.03
     4   6    -0.02   0.00   0.02    -0.02   0.01   0.03     0.01  -0.00  -0.03
     5   6     0.03   0.00   0.01     0.03  -0.01  -0.00     0.00   0.02   0.02
     6   6    -0.05  -0.03  -0.02     0.06   0.04   0.02    -0.00  -0.06   0.01
     7   6    -0.09  -0.01  -0.04    -0.09   0.00  -0.02    -0.05  -0.02  -0.05
     8   6     0.05  -0.03   0.02     0.06  -0.04   0.02    -0.00   0.06   0.01
     9   6     0.01   0.05  -0.04     0.00   0.05  -0.06     0.02  -0.07   0.08
    10   6    -0.01   0.05   0.04     0.00  -0.05  -0.06     0.02   0.07   0.08
    11   1    -0.45   0.09  -0.35     0.34  -0.10   0.34     0.46  -0.03   0.13
    12   1     0.09  -0.06   0.06    -0.12   0.12  -0.09    -0.05  -0.01  -0.00
    13   1     0.07  -0.04  -0.11     0.05   0.04   0.19    -0.02  -0.06  -0.20
    14   1    -0.07  -0.04   0.11     0.05  -0.04   0.19    -0.02   0.06  -0.20
    15   1    -0.09  -0.06  -0.06    -0.12  -0.12  -0.09    -0.05   0.01  -0.00
    16   1     0.25  -0.16   0.09    -0.23   0.20  -0.07    -0.11  -0.23  -0.18
    17   1     0.45   0.09   0.35     0.34   0.10   0.34     0.46   0.03   0.13
    18   1    -0.25  -0.16  -0.09    -0.23  -0.20  -0.07    -0.11   0.23  -0.18
    19   1    -0.02   0.03   0.05    -0.06   0.04   0.12     0.06   0.03  -0.14
    20   1     0.07   0.11  -0.02     0.12   0.15  -0.04    -0.14  -0.26   0.02
    21   1     0.02   0.03  -0.05    -0.06  -0.04   0.12     0.06  -0.03  -0.14
    22   1    -0.07   0.11   0.02     0.12  -0.15  -0.04    -0.14   0.26   0.02
                     25                     26                     27
                      A                      A                      A
 Frequencies --    966.7052               983.1178               991.8881
 Red. masses --      1.6652                 1.8071                 1.4733
 Frc consts  --      0.9169                 1.0291                 0.8540
 IR Inten    --      0.0000                32.4678                 0.7188
  Atom  AN      X      Y      Z        X      Y      Z        X      Y      Z
     1   6    -0.03   0.01  -0.05     0.01   0.01  -0.01    -0.01  -0.02   0.02
     2   6    -0.00  -0.03   0.01     0.00   0.02   0.00     0.01  -0.00   0.01
     3   6     0.02   0.02  -0.05    -0.07  -0.09   0.06     0.04   0.05  -0.06
     4   6    -0.02   0.02   0.05    -0.07   0.09   0.06    -0.04   0.05   0.06
     5   6     0.00  -0.03  -0.01     0.00  -0.02   0.00    -0.01  -0.00  -0.01
     6   6    -0.02  -0.06   0.00    -0.02  -0.06   0.05     0.01   0.05  -0.05
     7   6     0.03   0.01   0.05     0.01  -0.01  -0.01     0.01  -0.02  -0.02
     8   6     0.02  -0.06  -0.00    -0.02   0.06   0.05    -0.01   0.05   0.05
     9   6    -0.03   0.08  -0.11     0.03  -0.06  -0.09     0.02  -0.05  -0.07
    10   6     0.03   0.08   0.11     0.03   0.06  -0.09    -0.02  -0.05   0.07
    11   1     0.37  -0.02   0.10     0.05   0.05  -0.16    -0.09  -0.05   0.13
    12   1    -0.03  -0.09  -0.00     0.05   0.21   0.02    -0.08  -0.03  -0.04
    13   1    -0.01  -0.05  -0.24    -0.13  -0.06   0.14     0.42   0.03   0.02
    14   1     0.01  -0.05   0.24    -0.13   0.06   0.14    -0.42   0.03  -0.02
    15   1     0.03  -0.09   0.00     0.05  -0.21   0.02     0.08  -0.03   0.04
    16   1    -0.03  -0.26  -0.16     0.00  -0.10   0.04     0.03   0.13   0.02
    17   1    -0.37  -0.02  -0.10     0.05  -0.05  -0.16     0.09  -0.05  -0.13
    18   1     0.03  -0.26   0.16     0.00   0.10   0.04    -0.03   0.13  -0.02
    19   1    -0.07  -0.08   0.16     0.12  -0.30  -0.06     0.09  -0.27  -0.04
    20   1     0.21   0.28  -0.05     0.33  -0.25  -0.24     0.28  -0.22  -0.20
    21   1     0.07  -0.08  -0.16     0.12   0.30  -0.06    -0.09  -0.27   0.04
    22   1    -0.21   0.28   0.05     0.33   0.25  -0.24    -0.28  -0.22   0.20
                     28                     29                     30
                      A                      A                      A
 Frequencies --   1021.9245              1079.1343              1084.2477
 Red. masses --      1.4362                 1.5912                 1.3032
 Frc consts  --      0.8837                 1.0918                 0.9026
 IR Inten    --     18.1766                 0.1594                 2.0388
  Atom  AN      X      Y      Z        X      Y      Z        X      Y      Z
     1   6    -0.01  -0.07   0.01     0.03   0.09  -0.03    -0.02  -0.05   0.03
     2   6     0.04   0.00  -0.05    -0.05  -0.04   0.08     0.01   0.06  -0.04
     3   6    -0.06   0.03  -0.02    -0.03  -0.05   0.01     0.04   0.01  -0.01
     4   6    -0.06  -0.03  -0.02     0.03  -0.05  -0.01     0.04  -0.01  -0.01
     5   6     0.04  -0.00  -0.05     0.05  -0.04  -0.08     0.01  -0.06  -0.04
     6   6    -0.04  -0.03  -0.02     0.02   0.05  -0.02    -0.01  -0.03   0.03
     7   6    -0.01   0.07   0.01    -0.03   0.09   0.03    -0.02   0.05   0.03
     8   6    -0.04   0.03  -0.02    -0.02   0.05   0.02    -0.01   0.03   0.03
     9   6     0.04  -0.04   0.03    -0.00  -0.02   0.00    -0.01  -0.00  -0.00
    10   6     0.04   0.04   0.03     0.00  -0.02  -0.00    -0.01   0.00  -0.00
    11   1    -0.10  -0.11   0.12     0.28   0.20  -0.38    -0.20  -0.13   0.27
    12   1     0.01   0.07  -0.07    -0.16  -0.36   0.06     0.22   0.46   0.02
    13   1     0.37   0.15   0.40     0.09  -0.08  -0.01    -0.10  -0.07  -0.27
    14   1     0.37  -0.15   0.40    -0.09  -0.08   0.01    -0.10   0.07  -0.27
    15   1     0.01  -0.07  -0.07     0.16  -0.36  -0.06     0.22  -0.46   0.02
    16   1     0.08  -0.03   0.06     0.01   0.14   0.03    -0.04  -0.06  -0.01
    17   1    -0.10   0.11   0.12    -0.28   0.21   0.38    -0.20   0.13   0.27
    18   1     0.08   0.03   0.06    -0.01   0.14  -0.03    -0.04   0.06  -0.01
    19   1    -0.03   0.19  -0.02    -0.02  -0.01   0.04    -0.02   0.01   0.02
    20   1    -0.03  -0.26  -0.06     0.04  -0.10  -0.04    -0.01   0.01   0.01
    21   1    -0.03  -0.19  -0.02     0.02  -0.01  -0.04    -0.02  -0.01   0.02
    22   1    -0.03   0.26  -0.06    -0.04  -0.10   0.04    -0.01  -0.01   0.01
                     31                     32                     33
                      A                      A                      A
 Frequencies --   1088.1310              1095.2043              1115.5882
 Red. masses --      1.2542                 1.2245                 1.3499
 Frc consts  --      0.8749                 0.8654                 0.9898
 IR Inten    --      0.5480                 0.9007                 2.4444
  Atom  AN      X      Y      Z        X      Y      Z        X      Y      Z
     1   6    -0.00  -0.03  -0.01     0.02   0.03  -0.01     0.01  -0.05  -0.03
     2   6     0.02  -0.04  -0.03    -0.02   0.02   0.02     0.03   0.00  -0.06
     3   6    -0.02   0.07   0.02    -0.01  -0.07  -0.02     0.01   0.00   0.00
     4   6     0.02   0.07  -0.02    -0.01   0.07  -0.02    -0.01   0.00  -0.00
     5   6    -0.02  -0.04   0.03    -0.02  -0.02   0.02    -0.03   0.00   0.06
     6   6    -0.00  -0.01  -0.01    -0.04   0.02   0.01    -0.05  -0.02   0.05
     7   6     0.00  -0.03   0.01     0.02  -0.03  -0.01    -0.01  -0.05   0.03
     8   6     0.00  -0.01   0.01    -0.04  -0.02   0.01     0.05  -0.02  -0.05
     9   6    -0.00   0.03  -0.00     0.02   0.02   0.01     0.01   0.02  -0.03
    10   6     0.00   0.03   0.00     0.02  -0.02   0.01    -0.01   0.02   0.03
    11   1    -0.02  -0.04  -0.01     0.17   0.09  -0.20     0.19   0.02  -0.28
    12   1    -0.13  -0.37  -0.08     0.03   0.22   0.03     0.06   0.09  -0.06
    13   1    -0.01   0.27   0.48     0.31  -0.20  -0.20    -0.03   0.01  -0.01
    14   1     0.01   0.27  -0.48     0.31   0.20  -0.20     0.03   0.01   0.01
    15   1     0.13  -0.37   0.08     0.03  -0.22   0.03    -0.06   0.09   0.06
    16   1     0.05  -0.05  -0.00    -0.03   0.23   0.17    -0.14   0.40   0.32
    17   1     0.02  -0.04   0.01     0.17  -0.09  -0.20    -0.19   0.02   0.28
    18   1    -0.05  -0.05   0.00    -0.03  -0.23   0.17     0.14   0.40  -0.32
    19   1    -0.01   0.04   0.03    -0.12   0.28   0.09     0.12  -0.17  -0.12
    20   1    -0.01   0.10   0.03    -0.00  -0.05  -0.02     0.02   0.13   0.01
    21   1     0.01   0.04  -0.03    -0.12  -0.28   0.09    -0.12  -0.17   0.12
    22   1     0.01   0.10  -0.03    -0.00   0.05  -0.02    -0.02   0.13  -0.01
                     34                     35                     36
                      A                      A                      A
 Frequencies --   1122.6766              1138.0596              1161.5038
 Red. masses --      1.5159                 1.1663                 1.2120
 Frc consts  --      1.1257                 0.8900                 0.9634
 IR Inten    --      5.5622                 3.9772                 4.4274
  Atom  AN      X      Y      Z        X      Y      Z        X      Y      Z
     1   6    -0.00  -0.07  -0.03    -0.01  -0.02  -0.00    -0.00   0.02   0.01
     2   6     0.04  -0.00  -0.07     0.02   0.00  -0.03    -0.00  -0.01   0.03
     3   6     0.02   0.03  -0.01    -0.01   0.01  -0.03    -0.06  -0.01  -0.05
     4   6     0.02  -0.03  -0.01     0.01   0.01   0.03    -0.06   0.01  -0.05
     5   6     0.04   0.00  -0.07    -0.02   0.00   0.03    -0.00   0.01   0.03
     6   6    -0.01  -0.03   0.07     0.03  -0.02   0.05     0.02   0.00   0.01
     7   6    -0.00   0.07  -0.03     0.01  -0.02   0.00    -0.00  -0.02   0.01
     8   6    -0.01   0.03   0.07    -0.03  -0.02  -0.05     0.02  -0.00   0.01
     9   6    -0.03  -0.03   0.04     0.02   0.00  -0.02     0.01   0.03   0.01
    10   6    -0.03   0.03   0.04    -0.02   0.00   0.02     0.01  -0.03   0.01
    11   1     0.15  -0.01  -0.27     0.01  -0.00  -0.09    -0.04   0.02   0.02
    12   1     0.05  -0.00  -0.08     0.05   0.03  -0.02     0.01   0.16   0.02
    13   1    -0.15   0.09   0.06    -0.00   0.03   0.01     0.34  -0.05   0.01
    14   1    -0.15  -0.09   0.06     0.00   0.03  -0.01     0.34   0.05   0.01
    15   1     0.05   0.00  -0.08    -0.05   0.03   0.02     0.01  -0.16   0.02
    16   1    -0.19   0.38   0.28    -0.10   0.10   0.05     0.00  -0.06  -0.05
    17   1     0.15   0.01  -0.27    -0.01  -0.00   0.09    -0.04  -0.02   0.02
    18   1    -0.19  -0.38   0.28     0.10   0.10  -0.05     0.00   0.06  -0.05
    19   1     0.07  -0.19  -0.07    -0.26   0.44   0.25     0.25  -0.33  -0.26
    20   1    -0.14   0.08   0.12     0.18  -0.26  -0.18    -0.14   0.25   0.14
    21   1     0.07   0.19  -0.07     0.26   0.44  -0.25     0.25   0.33  -0.26
    22   1    -0.14  -0.08   0.12    -0.18  -0.26   0.18    -0.14  -0.25   0.14
                     37                     38                     39
                      A                      A                      A
 Frequencies --   1278.3316              1281.7168              1305.7836
 Red. masses --      1.7295                 1.7493                 1.5550
 Frc consts  --      1.6651                 1.6932                 1.5622
 IR Inten    --      5.4822                 2.5522                 1.6645
  Atom  AN      X      Y      Z        X      Y      Z        X      Y      Z
     1   6    -0.01   0.02   0.03     0.01  -0.03  -0.03     0.02   0.04  -0.03
     2   6     0.01  -0.03  -0.03    -0.01   0.04   0.03     0.02   0.04  -0.03
     3   6    -0.03  -0.02   0.02     0.03   0.02  -0.03    -0.06   0.02   0.08
     4   6    -0.03   0.02   0.02    -0.03   0.02   0.03    -0.06  -0.02   0.08
     5   6     0.01   0.03  -0.03     0.01   0.04  -0.03     0.02  -0.04  -0.03
     6   6    -0.01  -0.04   0.02     0.02   0.04  -0.03     0.00  -0.08  -0.01
     7   6    -0.01  -0.02   0.03    -0.01  -0.03   0.03     0.02  -0.04  -0.03
     8   6    -0.01   0.04   0.02    -0.02   0.04   0.02     0.00   0.09  -0.01
     9   6     0.07  -0.12  -0.07     0.07  -0.12  -0.08     0.03  -0.03  -0.02
    10   6     0.07   0.12  -0.07    -0.07  -0.12   0.08     0.03   0.03  -0.02
    11   1     0.04   0.06  -0.08    -0.03  -0.06   0.06    -0.17  -0.07   0.30
    12   1     0.05   0.07  -0.02    -0.05  -0.09   0.02    -0.07  -0.35  -0.04
    13   1    -0.08   0.00   0.08     0.07  -0.00  -0.07     0.16  -0.17  -0.29
    14   1    -0.08  -0.00   0.08    -0.07  -0.00   0.07     0.16   0.17  -0.29
    15   1     0.05  -0.07  -0.02     0.05  -0.09  -0.02    -0.07   0.35  -0.04
    16   1     0.03  -0.16  -0.05    -0.03   0.16   0.04    -0.07   0.21   0.16
    17   1     0.04  -0.06  -0.08     0.03  -0.06  -0.06    -0.18   0.07   0.30
    18   1     0.03   0.16  -0.05     0.03   0.16  -0.04    -0.07  -0.21   0.16
    19   1    -0.14   0.23   0.12    -0.14   0.23   0.13     0.04  -0.03  -0.03
    20   1    -0.27   0.43   0.26    -0.27   0.43   0.26    -0.02   0.02   0.01
    21   1    -0.14  -0.23   0.12     0.14   0.23  -0.13     0.04   0.03  -0.03
    22   1    -0.27  -0.43   0.26     0.27   0.43  -0.26    -0.02  -0.02   0.01
                     40                     41                     42
                      A                      A                      A
 Frequencies --   1306.2294              1381.2086              1422.3744
 Red. masses --      1.5609                 3.1439                 2.4674
 Frc consts  --      1.5692                 3.5338                 2.9411
 IR Inten    --      0.8983                 9.7149                 4.8713
  Atom  AN      X      Y      Z        X      Y      Z        X      Y      Z
     1   6    -0.02  -0.04   0.03    -0.05  -0.04   0.05    -0.02  -0.07   0.02
     2   6    -0.02  -0.03   0.03     0.03   0.20   0.04     0.03  -0.05  -0.09
     3   6     0.07  -0.02  -0.08     0.08  -0.14  -0.07    -0.05   0.11   0.12
     4   6    -0.07  -0.02   0.08    -0.08  -0.14   0.07    -0.05  -0.11   0.12
     5   6     0.02  -0.03  -0.03    -0.03   0.20  -0.04     0.03   0.05  -0.09
     6   6    -0.00   0.08   0.01     0.05  -0.05  -0.07    -0.03   0.10   0.06
     7   6     0.02  -0.04  -0.03     0.05  -0.04  -0.05    -0.02   0.07   0.02
     8   6     0.00   0.08  -0.01    -0.05  -0.05   0.07    -0.03  -0.10   0.06
     9   6     0.02  -0.02  -0.02     0.03   0.08  -0.03     0.03   0.06  -0.03
    10   6    -0.02  -0.02   0.02    -0.03   0.08   0.03     0.03  -0.06  -0.03
    11   1     0.18   0.07  -0.30    -0.03  -0.04   0.04     0.16   0.01  -0.27
    12   1     0.07   0.33   0.04    -0.11  -0.39   0.03     0.05  -0.03  -0.11
    13   1    -0.20   0.17   0.28    -0.38  -0.01   0.13     0.20  -0.11  -0.35
    14   1     0.20   0.17  -0.28     0.38  -0.01  -0.13     0.20   0.11  -0.35
    15   1    -0.07   0.33  -0.04     0.11  -0.39  -0.03     0.05   0.03  -0.11
    16   1     0.07  -0.21  -0.17    -0.02   0.15   0.03     0.07  -0.30  -0.18
    17   1    -0.18   0.06   0.30     0.03  -0.04  -0.04     0.17  -0.01  -0.27
    18   1    -0.07  -0.21   0.17     0.02   0.15  -0.03     0.07   0.30  -0.18
    19   1     0.03  -0.03  -0.03     0.07  -0.13   0.06     0.04  -0.04   0.05
    20   1    -0.00   0.01   0.00    -0.02  -0.10  -0.10     0.00  -0.04  -0.08
    21   1    -0.03  -0.03   0.03    -0.07  -0.13  -0.06     0.04   0.04   0.05
    22   1     0.00   0.01  -0.00     0.02  -0.10   0.10     0.00   0.04  -0.08
                     43                     44                     45
                      A                      A                      A
 Frequencies --   1430.6804              1431.4803              1462.5881
 Red. masses --      2.1137                 3.2325                 1.1319
 Frc consts  --      2.5491                 3.9026                 1.4267
 IR Inten    --      3.9958                 5.8356                 4.6238
  Atom  AN      X      Y      Z        X      Y      Z        X      Y      Z
     1   6     0.06   0.10  -0.07    -0.09  -0.10   0.13    -0.01  -0.02   0.00
     2   6    -0.06  -0.08   0.07     0.06   0.21  -0.02     0.01   0.03   0.00
     3   6     0.04  -0.02  -0.08    -0.02  -0.10  -0.03     0.00  -0.02   0.00
     4   6    -0.04  -0.02   0.08    -0.02   0.10  -0.03    -0.00  -0.02  -0.00
     5   6     0.06  -0.08  -0.07     0.06  -0.21  -0.02    -0.01   0.03  -0.00
     6   6     0.01  -0.09  -0.02     0.04   0.03  -0.05     0.00   0.01   0.00
     7   6    -0.06   0.10   0.07    -0.09   0.10   0.13     0.01  -0.02  -0.00
     8   6    -0.01  -0.09   0.02     0.04  -0.03  -0.05    -0.00   0.01  -0.00
     9   6     0.01   0.02  -0.01    -0.02  -0.03   0.03    -0.04  -0.04   0.03
    10   6    -0.01   0.02   0.01    -0.02   0.03   0.03     0.04  -0.04  -0.03
    11   1    -0.17   0.00   0.30     0.13   0.01  -0.25     0.01  -0.01  -0.02
    12   1     0.01   0.23   0.10    -0.05  -0.39  -0.02    -0.03  -0.08  -0.01
    13   1    -0.15   0.14   0.26    -0.01  -0.13  -0.06    -0.01  -0.03  -0.02
    14   1     0.15   0.14  -0.26    -0.01   0.13  -0.06     0.01  -0.03   0.02
    15   1    -0.01   0.23  -0.10    -0.05   0.39  -0.02     0.03  -0.08   0.01
    16   1    -0.08   0.27   0.19     0.05  -0.08  -0.14     0.02  -0.03  -0.03
    17   1     0.17   0.00  -0.30     0.13  -0.01  -0.24    -0.01  -0.01   0.02
    18   1     0.08   0.27  -0.19     0.05   0.08  -0.14    -0.02  -0.03   0.03
    19   1     0.04   0.08  -0.12     0.04   0.13  -0.24     0.03   0.26  -0.40
    20   1     0.13   0.06  -0.02     0.16   0.12   0.06     0.45   0.22   0.05
    21   1    -0.04   0.08   0.12     0.04  -0.13  -0.24    -0.03   0.26   0.40
    22   1    -0.13   0.06   0.02     0.16  -0.12   0.06    -0.45   0.22  -0.05
                     46                     47                     48
                      A                      A                      A
 Frequencies --   1463.5605              1542.8024              1558.2577
 Red. masses --      1.1670                 4.0898                 4.3941
 Frc consts  --      1.4728                 5.7356                 6.2863
 IR Inten    --     11.7488                 6.2967                 0.6870
  Atom  AN      X      Y      Z        X      Y      Z        X      Y      Z
     1   6     0.01   0.01  -0.01    -0.10   0.08   0.21     0.12  -0.07  -0.23
     2   6    -0.00  -0.04  -0.01    -0.00  -0.11  -0.06    -0.02   0.08   0.06
     3   6    -0.00   0.03   0.02    -0.01   0.06   0.05     0.01  -0.04  -0.04
     4   6    -0.00  -0.03   0.02    -0.01  -0.06   0.05    -0.01  -0.04   0.04
     5   6    -0.00   0.04  -0.01    -0.00   0.11  -0.06     0.02   0.08  -0.06
     6   6    -0.01  -0.00   0.01     0.10  -0.11  -0.18    -0.10   0.12   0.20
     7   6     0.01  -0.01  -0.01    -0.10  -0.08   0.21    -0.12  -0.07   0.23
     8   6    -0.01   0.00   0.01     0.10   0.11  -0.18     0.10   0.12  -0.20
     9   6    -0.03  -0.03   0.03    -0.02   0.01   0.02    -0.01   0.00   0.02
    10   6    -0.04   0.03   0.03    -0.02  -0.01   0.02     0.01   0.00  -0.02
    11   1    -0.00   0.00   0.02     0.15   0.24  -0.20    -0.16  -0.25   0.22
    12   1     0.02   0.07  -0.01     0.13   0.28  -0.04    -0.10  -0.24   0.06
    13   1     0.00   0.03  -0.02    -0.00   0.02  -0.07    -0.02  -0.01   0.05
    14   1     0.00  -0.03  -0.02    -0.00  -0.02  -0.07     0.02  -0.01  -0.05
    15   1     0.02  -0.07  -0.01     0.13  -0.28  -0.04     0.10  -0.24  -0.06
    16   1    -0.01   0.00   0.02     0.00   0.29   0.01    -0.02  -0.28  -0.01
    17   1    -0.00  -0.00   0.02     0.15  -0.24  -0.20     0.16  -0.25  -0.22
    18   1    -0.01  -0.00   0.02     0.00  -0.29   0.01     0.02  -0.28   0.01
    19   1     0.03   0.27  -0.39     0.04  -0.10  -0.01     0.04  -0.12   0.01
    20   1     0.46   0.22   0.04     0.02  -0.19  -0.08    -0.01  -0.19  -0.07
    21   1     0.03  -0.27  -0.39     0.04   0.10  -0.01    -0.04  -0.12  -0.01
    22   1     0.46  -0.22   0.04     0.02   0.19  -0.08     0.01  -0.19   0.07
                     49                     50                     51
                      A                      A                      A
 Frequencies --   2980.2168              2980.3217              3087.4222
 Red. masses --      1.0721                 1.0725                 1.0880
 Frc consts  --      5.6104                 5.6126                 6.1102
 IR Inten    --     97.7040                14.2373                16.6154
  Atom  AN      X      Y      Z        X      Y      Z        X      Y      Z
     1   6     0.00   0.00  -0.00    -0.00  -0.00   0.00    -0.00   0.00  -0.00
     2   6    -0.00  -0.00   0.00     0.00   0.00  -0.00     0.00  -0.00  -0.00
     3   6    -0.00  -0.00  -0.00     0.00   0.00   0.00    -0.00   0.00  -0.00
     4   6    -0.00   0.00  -0.00    -0.00   0.00  -0.00     0.00   0.00   0.00
     5   6    -0.00   0.00   0.00    -0.00   0.00   0.00    -0.00  -0.00   0.00
     6   6    -0.00   0.00  -0.00     0.00  -0.00   0.00    -0.00  -0.00   0.00
     7   6     0.00  -0.00  -0.00     0.00  -0.00  -0.00     0.00   0.00   0.00
     8   6    -0.00  -0.00  -0.00    -0.00  -0.00  -0.00     0.00  -0.00  -0.00
     9   6    -0.05  -0.02  -0.01    -0.05  -0.02  -0.01     0.02  -0.02   0.05
    10   6    -0.05   0.02  -0.01     0.05  -0.02   0.01    -0.02  -0.02  -0.05
    11   1    -0.00  -0.00  -0.00     0.00   0.00   0.00     0.00  -0.00   0.00
    12   1    -0.00   0.00  -0.00    -0.00  -0.00   0.00    -0.00   0.00   0.01
    13   1     0.00   0.02  -0.00    -0.00  -0.02   0.01    -0.00  -0.03   0.01
    14   1     0.00  -0.02  -0.00     0.00  -0.02  -0.01     0.00  -0.03  -0.01
    15   1    -0.00  -0.00   0.00     0.00  -0.00  -0.00     0.00   0.00  -0.01
    16   1    -0.00  -0.00   0.01     0.00   0.00  -0.01     0.01   0.01  -0.02
    17   1    -0.00   0.00  -0.00    -0.00   0.00  -0.00    -0.00  -0.00  -0.00
    18   1    -0.00   0.00   0.01    -0.00   0.00   0.01    -0.01   0.01   0.02
    19   1     0.60   0.23   0.24     0.62   0.24   0.25    -0.07  -0.04  -0.02
    20   1    -0.03   0.04  -0.09    -0.03   0.03  -0.09    -0.12   0.30  -0.62
    21   1     0.62  -0.24   0.25    -0.60   0.23  -0.24     0.07  -0.04   0.02
    22   1    -0.03  -0.04  -0.09     0.03   0.03   0.08     0.12   0.30   0.62
                     52                     53                     54
                      A                      A                      A
 Frequencies --   3088.9827              3162.4402              3169.0903
 Red. masses --      1.0887                 1.0913                 1.0902
 Frc consts  --      6.1206                 6.4303                 6.4510
 IR Inten    --     37.9811                 4.1483                28.2806
  Atom  AN      X      Y      Z        X      Y      Z        X      Y      Z
     1   6    -0.00   0.00  -0.00     0.00   0.00   0.00     0.00   0.00   0.00
     2   6    -0.00  -0.00   0.00     0.00   0.00  -0.01     0.00   0.00  -0.01
     3   6    -0.00   0.00  -0.00    -0.01  -0.06   0.02    -0.01  -0.06   0.02
     4   6    -0.00  -0.00  -0.00    -0.01   0.06   0.02     0.01  -0.06  -0.02
     5   6    -0.00   0.00   0.00     0.00  -0.00  -0.01    -0.00   0.00   0.01
     6   6    -0.00  -0.00   0.00    -0.00  -0.00   0.00    -0.00  -0.00   0.00
     7   6    -0.00  -0.00  -0.00     0.00  -0.00   0.00    -0.00   0.00  -0.00
     8   6    -0.00   0.00   0.00    -0.00   0.00   0.00     0.00  -0.00  -0.00
     9   6    -0.02   0.02  -0.05     0.00   0.00  -0.00    -0.00  -0.00   0.00
    10   6    -0.02  -0.02  -0.05     0.00  -0.00  -0.00     0.00  -0.00  -0.00
    11   1     0.00   0.00   0.00     0.00  -0.02  -0.01    -0.00  -0.02  -0.01
    12   1     0.00  -0.00  -0.00    -0.04   0.01   0.09    -0.05   0.01   0.09
    13   1     0.00  -0.01   0.00     0.09   0.64  -0.27     0.09   0.63  -0.27
    14   1     0.00   0.01   0.00     0.09  -0.64  -0.27    -0.09   0.64   0.27
    15   1     0.00   0.00  -0.00    -0.04  -0.01   0.09     0.05   0.01  -0.09
    16   1     0.01   0.01  -0.02     0.01   0.01  -0.02     0.01   0.01  -0.02
    17   1     0.00  -0.00   0.00     0.00   0.02  -0.01     0.00  -0.02   0.01
    18   1     0.01  -0.01  -0.02     0.01  -0.01  -0.02    -0.01   0.01   0.02
    19   1     0.08   0.04   0.02    -0.01  -0.00  -0.00     0.01   0.00   0.00
    20   1     0.12  -0.30   0.62     0.00  -0.00   0.01    -0.00   0.01  -0.03
    21   1     0.08  -0.04   0.02    -0.01   0.00  -0.00    -0.01   0.00  -0.00
    22   1     0.12   0.30   0.62     0.00   0.00   0.01     0.00   0.01   0.03
                     55                     56                     57
                      A                      A                      A
 Frequencies --   3187.3224              3188.9078              3214.1633
 Red. masses --      1.0884                 1.0884                 1.0974
 Frc consts  --      6.5147                 6.5213                 6.6799
 IR Inten    --      9.7479                16.6349                18.1959
  Atom  AN      X      Y      Z        X      Y      Z        X      Y      Z
     1   6     0.00  -0.05  -0.02     0.00  -0.05  -0.02    -0.00   0.02   0.01
     2   6    -0.00   0.00   0.01    -0.00   0.00   0.01     0.01  -0.00  -0.02
     3   6    -0.00  -0.00   0.00    -0.00  -0.00   0.00    -0.00   0.00   0.00
     4   6    -0.00   0.00   0.00     0.00  -0.00  -0.00    -0.00  -0.00   0.00
     5   6    -0.00  -0.00   0.01     0.00   0.00  -0.01     0.01   0.00  -0.02
     6   6     0.01   0.01  -0.01     0.01   0.01  -0.02     0.03   0.03  -0.04
     7   6     0.00   0.05  -0.02    -0.00  -0.05   0.02    -0.00  -0.02   0.01
     8   6     0.01  -0.01  -0.01    -0.01   0.01   0.02     0.03  -0.03  -0.04
     9   6     0.00   0.00  -0.00     0.00  -0.00   0.00    -0.00   0.00  -0.00
    10   6     0.00  -0.00  -0.00    -0.00  -0.00  -0.00    -0.00  -0.00  -0.00
    11   1    -0.02   0.61   0.18    -0.02   0.60   0.18     0.01  -0.23  -0.07
    12   1     0.05  -0.01  -0.10     0.05  -0.01  -0.10    -0.09   0.02   0.18
    13   1     0.01   0.04  -0.02     0.01   0.04  -0.02    -0.00  -0.01   0.00
    14   1     0.01  -0.04  -0.02    -0.01   0.04   0.02    -0.00   0.01   0.00
    15   1     0.05   0.01  -0.10    -0.05  -0.01   0.10    -0.09  -0.02   0.18
    16   1    -0.14  -0.15   0.19    -0.14  -0.16   0.20    -0.31  -0.34   0.44
    17   1    -0.02  -0.61   0.18     0.02   0.60  -0.18     0.01   0.22  -0.07
    18   1    -0.14   0.15   0.19     0.14  -0.16  -0.20    -0.30   0.33   0.43
    19   1    -0.00  -0.00  -0.00    -0.00   0.00  -0.00    -0.00  -0.00  -0.00
    20   1     0.00  -0.00   0.01    -0.00   0.01  -0.01     0.00  -0.01   0.02
    21   1    -0.00   0.00  -0.00     0.00   0.00   0.00    -0.00   0.00  -0.00
    22   1     0.00   0.00   0.01     0.00   0.01   0.01     0.00   0.01   0.02
                     58                     59                     60
                      A                      A                      A
 Frequencies --   3214.2746              3229.9854              3230.4475
 Red. masses --      1.0977                 1.0986                 1.0990
[...]
 36670,0.00004410,0.00038619,-0.00158770,-0.00371767,0.00351845,0.00081
 971,0.00034866,0.00071245,-0.00416862,0.05010370,-0.00124433,0.0055293
 8,-0.00371222,-0.12691834,0.02270045,-0.28403508,-0.00685866,-0.003913
 53,-0.00612808,0.00018347,-0.00014913,-0.00026313,-0.00069198,0.000619
 39,-0.00022082,-0.00209442,-0.00032456,-0.00083314,0.00009702,-0.00022
 273,0.00083401,0.00119265,-0.00070845,-0.00111092,-0.00051098,-0.00038
 442,-0.00029735,-0.00108914,0.00118602,0.00017335,0.00065358,-0.000475
 30,-0.00028498,0.13683058,-0.02519323,0.29580262,0.00514884,0.00048684
 ,0.00112013,0.00048772,-0.00493622,0.00287118,-0.03760088,-0.02173501,
 -0.02909517,-0.00872709,0.01117617,0.01235294,-0.00177088,-0.00464044,
 -0.00087972,-0.00269392,0.00192841,-0.00457465,-0.00096670,0.00118786,
 -0.00176630,-0.00063033,0.00124151,0.00154336,0.00185034,0.00061348,0.
 00077132,-0.00116864,-0.01863489,-0.00362709,0.00032596,-0.00018574,0.
 00007040,-0.00208862,0.00021259,0.00147585,0.04465676,0.00039268,-0.00
 379917,0.00209990,-0.00347580,-0.01445147,-0.01395164,-0.03067862,-0.2
 8808859,-0.09911209,-0.00084503,-0.00032188,0.00051608,-0.00011104,0.0
 0024992,-0.00014612,0.00077108,-0.00022408,0.00089044,-0.00008023,0.00
 054780,0.00002604,-0.00023261,-0.00016398,0.00043931,0.00002990,-0.000
 09259,-0.00021880,0.00171726,0.00187618,0.00191781,-0.00109424,-0.0005
 1942,-0.00038150,-0.00004895,0.00072148,0.00053651,0.03438420,0.303005
 06,-0.00292601,0.00305273,-0.00329109,0.00405651,0.02100666,0.01051652
 ,-0.02860096,-0.10750194,-0.08644395,0.00462486,-0.00738497,-0.0070815
 9,0.00105887,0.00211174,0.00052973,-0.00318664,-0.00146960,-0.00239834
 ,0.00017687,-0.00034845,0.00026408,0.00021148,0.00028135,-0.00060738,-
 0.00107505,-0.00019906,0.00015121,0.00452943,-0.01611421,-0.00433874,0
 .00068504,0.00066697,0.00054476,0.00131852,-0.00140752,-0.00040230,0.0
 2102274,0.10744456,0.09046909,-0.00096681,-0.00118816,-0.00176638,-0.0
 0177079,0.00464041,-0.00088020,-0.00872723,-0.01117500,0.01235427,-0.0
 3760162,0.02173669,-0.02909951,0.00048782,0.00493657,0.00287063,-0.000
 63044,-0.00124151,0.00154367,0.00514871,-0.00048653,0.00111998,-0.0026
 9398,-0.00192875,-0.00457438,-0.00116899,0.01863457,-0.00362911,0.0018
 5035,-0.00061340,0.00077141,0.00023236,-0.00007971,-0.00021608,0.00016
 927,-0.00005120,-0.00000489,0.00112525,-0.00015668,-0.00032733,0.04465
 833,0.00008023,0.00054782,-0.00002610,0.00011112,0.00024977,0.00014613
 ,0.00084540,-0.00032131,-0.00051657,0.03068023,-0.28806750,0.09913297,
 0.00347662,-0.01445221,0.01395416,0.00023265,-0.00016406,-0.00043935,-
 0.00039289,-0.00379970,-0.00209984,-0.00077146,-0.00022403,-0.00089072
 ,-0.00171684,0.00187791,-0.00191848,-0.00002995,-0.00009259,0.00021885
 ,-0.00006892,0.00005306,0.00004135,0.00004554,0.00000040,-0.00005662,0
 .00015667,0.00076887,0.00004299,-0.03438689,0.30298290,0.00017692,0.00
 034848,0.00026413,0.00105883,-0.00211183,0.00052998,0.00462501,0.00738
 449,-0.00708260,-0.02860641,0.10752300,-0.08646477,0.00405651,-0.02100
 418,0.01051708,0.00021152,-0.00028138,-0.00060741,-0.00292602,-0.00305
 272,-0.00329045,-0.00318651,0.00146921,-0.00239832,0.00452921,0.016113
 56,-0.00434025,-0.00107514,0.00019910,0.00015119,-0.00012548,-0.000012
 47,0.00007821,-0.00014194,0.00004334,0.00008569,-0.00032736,-0.0000431
 3,-0.00024266,0.02102844,-0.10746654,0.09049106,-0.00087043,-0.0008513
 2,-0.00243962,0.00154155,0.00218445,0.00076856,-0.00124446,-0.00094862
 ,0.00182461,0.00286657,0.00097353,-0.00003073,-0.08715761,-0.00338134,
 -0.12784269,-0.00293276,-0.00082501,0.00375685,-0.00448333,-0.00394798
 ,-0.01029187,0.00117937,0.00302167,-0.00076552,0.00315678,-0.00000508,
 -0.00260984,0.00021120,-0.00041566,0.00001238,-0.00001428,0.00000114,-
 0.00006133,-0.00024861,0.00009053,0.00003781,0.00016928,-0.00004554,-0
 .00014195,-0.00208862,0.00004905,0.00131853,0.09074531,0.00005226,-0.0
 0010487,-0.00040374,0.00055404,-0.00015399,0.00045004,-0.00030456,-0.0
 0025964,-0.00028162,-0.01272630,0.00520527,-0.02004625,-0.00169092,-0.
 05752003,-0.02442359,-0.00058838,-0.00015454,0.00069425,0.00698683,0.0
 0832943,0.01955497,0.00250353,-0.00382311,0.00278221,0.00158764,-0.003
 71810,-0.00351810,0.00036669,0.00004411,-0.00038623,0.00002946,0.00000
 488,0.00000919,-0.00009053,-0.00002009,0.00001215,0.00005122,0.0000004
 0,-0.00004335,-0.00021249,0.00072159,0.00140744,0.00418312,0.05010868,
 0.00009704,0.00022285,0.00083416,-0.00069203,-0.00061950,-0.00022088,0
 .00018361,0.00014918,-0.00026321,-0.00685746,0.00391238,-0.00612620,-0
 .12691953,-0.02272577,-0.28403109,0.00119290,0.00070848,-0.00111128,-0
 .00124463,-0.00553055,-0.00371330,-0.00209461,0.00032473,-0.00083353,-
 0.00108928,-0.00118558,0.00017388,-0.00051108,0.00038439,-0.00029734,0
 .00001566,-0.00001755,0.00001174,0.00003782,-0.00001214,0.00007056,-0.
 00000491,0.00005663,0.00008570,0.00147589,-0.00053660,-0.00040241,0.13
 683086,0.02522044,0.29579800,-0.00085406,-0.00710109,-0.00431657,0.003
 21984,0.00032245,-0.00491676,-0.00092736,-0.00011587,-0.00094150,0.000
 24017,0.00008990,0.00023126,-0.00010839,0.00011373,-0.00038958,-0.1035
 8426,-0.07844619,-0.11160799,0.00043136,-0.00036474,0.00030335,-0.0000
 4262,-0.00000695,-0.00039114,0.00018022,0.00036720,0.00018015,0.001912
 07,0.00296094,0.00400313,-0.00299573,0.00068803,0.00205232,0.00038695,
 -0.00105861,-0.00037720,0.00093239,-0.00012881,-0.00101139,-0.00003143
 ,-0.00006693,-0.00005206,0.00001134,-0.00014115,0.00017899,0.10146693,
 0.00684743,0.01030277,0.00890164,0.00053946,-0.00065597,0.00280597,0.0
 0124024,-0.00572935,0.00028217,0.00041165,-0.00011236,-0.00024488,0.00
 012291,0.00001557,-0.00012636,-0.07781197,-0.14079792,-0.10778427,-0.0
 0008103,0.00015269,0.00001703,-0.00013930,-0.00004560,0.00016416,-0.00
 001221,0.00010980,-0.00003947,-0.01390755,-0.00462283,-0.01775505,-0.0
 0009694,0.00026199,-0.00112446,0.00015694,0.00082434,0.00027081,-0.001
 41632,0.00011941,-0.00098521,0.00004412,0.00004782,-0.00006227,-0.0000
 9070,-0.00001751,0.00011811,0.08362911,0.13961710,-0.01019384,-0.01759
 643,-0.00839650,-0.00368061,0.00243732,-0.00191599,0.00061146,0.002038
 61,0.00027729,0.00006929,-0.00002640,-0.00019081,-0.00003244,0.0000797
 7,0.00046232,-0.10801273,-0.10383493,-0.18364315,-0.00020558,0.0000858
 3,-0.00018947,0.00005669,0.00011683,0.00022525,-0.00007912,-0.00020796
 ,-0.00007169,0.00289333,0.00308144,0.00248260,0.00229862,0.00015354,-0
 .00053635,-0.00078985,-0.00073312,-0.00017791,-0.00034580,0.00005523,0
 .00098922,-0.00001228,0.00004004,0.00006165,-0.00007944,0.00002099,0.0
 0003860,0.11762127,0.11516497,0.19013210,0.00012800,-0.00004399,0.0002
 1374,-0.00002884,-0.00013091,0.00015139,0.00010976,-0.00074906,-0.0004
 5584,0.00211861,0.00288225,-0.00398374,0.00216188,0.01248091,0.0059392
 3,0.00036875,-0.00004532,-0.00039840,-0.04236264,-0.00611190,-0.009740
 88,0.00326923,-0.01302171,-0.00254730,0.00559212,0.00016599,-0.0065860
 2,0.00002414,0.00002421,0.00001454,-0.00013203,-0.00005245,0.00011314,
 -0.00001428,-0.00002946,0.00001566,0.00023234,0.00006890,-0.00012548,0
 .00032594,0.00109433,0.00068495,-0.00124673,-0.00081966,0.00065359,-0.
 00009087,0.00001301,0.00001536,0.03251417,-0.00017486,-0.00017746,-0.0
 0016100,-0.00005403,0.00023149,-0.00035305,-0.00034006,-0.00006991,0.0
 0036506,0.00125866,-0.00273809,0.00139950,-0.00386678,-0.01099619,-0.0
 0960712,-0.00012336,0.00025251,0.00040767,-0.00382193,-0.31643227,-0.0
 7724349,0.00173210,-0.00375324,0.00161205,0.00126227,0.00025439,-0.001
 44540,0.00005935,-0.00007276,-0.00003332,0.00005246,0.00016537,-0.0000
 8550,-0.00000116,0.00000488,0.00001756,0.00007969,0.00005306,0.0000124
 6,0.00018575,-0.00051943,-0.00066684,-0.00000869,0.00034860,0.00047525
 ,0.00012080,0.00000500,-0.00001815,0.00462658,0.33355299,0.00004361,-0
 .00008187,0.00012610,0.00005457,-0.00019603,0.00005247,0.00041640,0.00
 053308,-0.00021173,-0.00383268,0.00284382,-0.00036356,0.00192589,0.013
 72626,0.00904502,-0.00000393,0.00008697,0.00018226,-0.01048097,-0.0752
 1076,-0.07730999,0.00066182,-0.02482229,0.00180963,-0.00479068,-0.0015
 9294,-0.00170213,-0.00003331,0.00000968,-0.00006627,0.00011313,0.00008
 548,-0.00005916,-0.00006132,-0.00000919,0.00001174,-0.00021608,-0.0000
 4135,0.00007822,0.00007038,0.00038159,0.00054477,0.00107591,-0.0007124
 9,-0.00028495,-0.00001367,-0.00002055,-0.00000663,0.01312639,0.0854749
 6,0.06890410,0.00043131,0.00036474,0.00030328,-0.00010833,-0.00011381,
 -0.00038945,0.00024021,-0.00008987,0.00023127,-0.00092717,0.00011590,-
 0.00094139,0.00321982,-0.00032309,-0.00491688,-0.00004260,0.00000692,-
 0.00039107,-0.00085440,0.00710094,-0.00431757,-0.10359211,0.07843797,-
 0.11161964,0.00191182,-0.00296032,0.00400277,0.00018025,-0.00036721,0.
 00018016,-0.00009086,-0.00012079,-0.00001366,0.00001132,0.00014116,0.0
 0017896,-0.00003142,0.00006691,-0.00005206,0.00093228,0.00012870,-0.00
 101140,0.00038687,0.00105862,-0.00037731,0.00001458,0.00001321,-0.0000
 0415,-0.00299569,-0.00068792,0.00205245,0.10147523,0.00008102,0.000152
 68,-0.00001706,-0.00012289,0.00001555,0.00012640,-0.00041160,-0.000112
 33,0.00024486,-0.00124007,-0.00572956,-0.00028157,-0.00053981,-0.00065
 658,-0.00280619,0.00013933,-0.00004561,-0.00016414,-0.00684887,0.01030
 364,-0.00890355,0.07780436,-0.14077310,0.10777607,0.01390817,-0.004621
 15,0.01775571,0.00001220,0.00010981,0.00003946,-0.00001301,0.00000501,
 0.00002055,0.00009068,-0.00001751,-0.00011808,-0.00004412,0.00004782,0
 .00006226,0.00141634,0.00011953,0.00098524,-0.00015702,0.00082442,-0.0
 0027092,-0.00001321,0.00001887,0.00000345,0.00009710,0.00026207,0.0011
 2443,-0.08362061,0.13959021,-0.00020557,-0.00008586,-0.00018944,-0.000
 03246,-0.00007968,0.00046225,0.00006930,0.00002639,-0.00019084,0.00061
 158,-0.00203805,0.00027747,-0.00368063,-0.00243740,-0.00191523,0.00005
 667,-0.00011681,0.00022525,-0.01019357,0.01759409,-0.00839695,-0.10802
 473,0.10382686,-0.18366078,0.00289210,-0.00308067,0.00248116,-0.000079
 15,0.00020797,-0.00007170,0.00001536,0.00001814,-0.00000664,-0.0000794
 3,-0.00002099,0.00003859,-0.00001227,-0.00004004,0.00006164,-0.0003459
 2,-0.00005514,0.00098915,-0.00078988,0.00073294,-0.00017792,-0.0000041
 5,-0.00000345,0.00000406,0.00229868,-0.00015354,-0.00053655,0.11763425
 ,-0.11515581,0.19015108,-0.00063730,-0.00002860,-0.00057481,-0.0002544
 3,0.00196834,-0.00112202,-0.00276089,-0.00158089,0.00049813,-0.0196655
 3,-0.00845737,0.00514200,0.00002894,0.00211360,-0.00022937,-0.00062040
 ,-0.00018253,0.00008865,0.00050224,0.00060779,0.00104968,0.00287696,-0
 .00102102,-0.00096586,-0.22652781,-0.07204600,0.07593304,-0.00026997,-
 0.00057023,0.00039265,-0.00001283,-0.00009881,-0.00001074,0.00021787,-
 0.00002818,-0.00006158,0.00037133,0.00001959,-0.00020094,0.00075157,0.
 00057765,-0.00013658,0.00022249,-0.00005603,-0.00037083,0.00003600,-0.
 00003061,-0.00006717,-0.00020401,-0.00015768,0.00003409,-0.00026167,-0
 .00058969,-0.00010557,0.25153157,-0.00030655,0.00012492,-0.00039533,-0
 .00031704,-0.00002768,0.00024827,0.00093630,0.00018794,0.00095517,0.00
 748344,0.00246344,-0.00171870,-0.00017473,-0.00048495,0.00130343,-0.00
 002691,-0.00034890,-0.00011126,0.00160502,-0.00264145,0.00162132,-0.02
 776652,-0.01674319,0.00643853,-0.07697354,-0.06577296,0.02818944,0.000
 40115,0.00002909,-0.00013357,0.00004291,0.00000831,-0.00000797,0.00011
 164,-0.00004500,0.00008134,-0.00016351,0.00015029,0.00018492,-0.000258
 29,0.00014125,-0.00025356,-0.00013161,-0.00001375,-0.00000949,-0.00010
 041,0.00003135,0.00005918,0.00157311,0.00011790,-0.00118728,0.00097130
 ,-0.00008540,-0.00005272,0.08137622,0.07771983,-0.00063224,-0.00072465
 ,-0.00137580,0.00103361,0.00172509,-0.00026340,-0.00124798,-0.00056994
 ,0.00051143,-0.01672870,-0.00772208,0.00366749,0.00087244,-0.00207450,
 0.00081429,-0.00086168,-0.00032407,0.00140469,-0.00319790,0.00145495,-
 0.00291827,0.00220768,0.00396402,0.00033572,0.07475093,0.02514541,-0.0
 7080643,0.00029313,-0.00020213,-0.00018613,0.00004196,0.00000393,-0.00
 005386,-0.00030022,0.00006479,0.00041526,-0.00001364,0.00015441,0.0000
 8488,0.00073081,0.00035096,0.00076265,0.00050895,0.00010059,-0.0004835
 3,-0.00009418,0.00000554,0.00007397,0.00031866,0.00000418,-0.00025047,
 -0.00022302,0.00039555,0.00023040,-0.08200756,-0.03105150,0.07821902,0
 .00019556,-0.00004556,0.00031909,-0.00075932,-0.00063553,-0.00015423,-
 0.00042873,-0.00069374,-0.00213931,0.00219751,-0.01208049,-0.01699079,
 -0.00336074,0.00230177,-0.00406572,0.00029711,0.00028553,-0.00012141,0
 .00180589,-0.00007041,0.00076916,-0.00240226,-0.00259251,0.00091421,-0
 .05067440,0.02471359,0.04190892,-0.00029034,0.00023195,0.00022071,0.00
 000830,0.00004060,0.00003828,-0.00025550,-0.00037413,0.00005710,-0.000
 22707,0.00033065,-0.00014049,-0.00014620,0.00030597,0.00024045,-0.0001
 6626,-0.00114571,-0.00050019,0.00011668,0.00000288,-0.00003759,0.00023
 469,-0.00019940,-0.00016953,-0.00005214,0.00002398,0.00008018,-0.00522
 191,0.01152873,0.02461479,0.05911943,-0.00032809,-0.00021739,-0.000509
 85,-0.00003615,0.00010942,-0.00032672,0.00005583,0.00051602,0.00071884
 ,-0.00289311,0.00337871,0.00685455,0.00249082,-0.00051299,0.00085974,-
 0.00011007,-0.00025881,0.00030652,0.00065544,-0.00606183,0.00005143,0.
 00383916,-0.00940705,-0.02891084,0.02219654,-0.09428131,-0.09999593,0.
 00017801,-0.00006459,-0.00008094,0.00002040,0.00000556,-0.00001161,-0.
 00031097,-0.00019491,0.00043943,-0.00005839,0.00005126,0.00014492,-0.0
 0003765,-0.00007157,-0.00018912,0.00010581,0.00043826,-0.00014367,-0.0
 0006318,0.00001024,0.00006685,-0.00195862,-0.00050279,-0.00041109,-0.0
 0028631,0.00055004,0.00103978,-0.00165928,0.00499656,0.00945710,-0.021
 84764,0.10141919,0.00005359,-0.00027984,-0.00037647,0.00070337,0.00049
 102,0.00096662,0.00195008,-0.00002730,-0.00084059,0.00484195,-0.008404
 98,-0.01350120,-0.00203431,-0.00043566,-0.00259252,0.00044786,-0.00015
 723,0.00063974,0.00006628,0.00171548,-0.00162802,-0.00097426,0.0019012
 8,0.00539331,0.03865525,-0.10076508,-0.25344172,0.00021130,0.00053758,
 -0.00021320,0.00005790,0.00002314,-0.00004193,-0.00008646,0.00011437,0
 .00046032,-0.00059503,0.00044291,0.00053600,-0.00050075,0.00029423,-0.
 00026769,-0.00069492,-0.00099075,0.00005745,-0.00018843,0.00005113,0.0
 0012765,0.00019246,0.00002580,0.00013292,-0.00004288,-0.00076000,0.000
 02336,0.00291180,-0.00430229,-0.01005180,-0.04488917,0.11057566,0.2745
 8482,0.00050239,-0.00060756,0.00104988,0.00002897,-0.00211368,-0.00022
 915,-0.01966548,0.00845711,0.00514097,-0.00276097,0.00158096,0.0004980
 2,-0.00025447,-0.00196846,-0.00112186,0.00287594,0.00102152,-0.0009656
 9,-0.00063731,0.00002850,-0.00057476,-0.00062034,0.00018251,0.00008858
 ,-0.00026999,0.00057026,0.00039263,-0.22653299,0.07204807,0.07592594,-
 0.00020397,0.00015767,0.00003403,0.00022250,0.00005599,-0.00037084,0.0
 0075154,-0.00057764,-0.00013654,0.00037135,-0.00001960,-0.00020096,0.0
 0021789,0.00002818,-0.00006159,-0.00026165,0.00058967,-0.00010564,-0.0
 0001283,0.00009881,-0.00001074,0.00003601,0.00003060,-0.00006719,-0.00
 007093,0.00013686,-0.00005025,-0.00003129,0.00001938,-0.00014675,0.251
 53741,-0.00160512,-0.00264170,-0.00162133,0.00017481,-0.00048491,-0.00
 130329,-0.00748573,0.00246431,0.00171888,-0.00093647,0.00018787,-0.000
 95521,0.00031717,-0.00002792,-0.00024828,0.02776719,-0.01674333,-0.006
 43671,0.00030654,0.00012504,0.00039517,0.00002686,-0.00034889,0.000111
 41,-0.00040115,0.00002913,0.00013357,0.07697547,-0.06577304,-0.0281867
 0,-0.00157308,0.00011799,0.00118715,0.00013166,-0.00001376,0.00000944,
 0.00025839,0.00014120,0.00025361,0.00016352,0.00015027,-0.00018494,-0.
 00011168,-0.00004502,-0.00008130,-0.00097131,-0.00008545,0.00005273,-0
 .00004291,0.00000831,0.00000796,0.00010039,0.00003135,-0.00005917,-0.0
 0013687,0.00013329,-0.00012610,-0.00005244,0.00005912,-0.00001601,-0.0
 8137841,0.07772039,-0.00319772,-0.00145505,-0.00291803,0.00087224,0.00
 207475,0.00081423,-0.01672832,0.00772169,0.00366653,-0.00124793,0.0005
 6999,0.00051144,0.00103359,-0.00172513,-0.00026322,0.00220533,-0.00396
 251,0.00033664,-0.00063225,0.00072449,-0.00137586,-0.00086160,0.000324
 17,0.00140459,0.00029314,0.00020212,-0.00018615,0.07474330,-0.02514274
 ,-0.07080034,0.00031881,-0.00000422,-0.00025057,0.00050897,-0.00010064
 ,-0.00048352,0.00073080,-0.00035090,0.00076264,-0.00001365,-0.00015443
 ,0.00008492,-0.00030021,-0.00006475,0.00041528,-0.00022292,-0.00039552
 ,0.00023042,0.00004196,-0.00000394,-0.00005386,-0.00009419,-0.00000554
 ,0.00007398,-0.00005025,0.00012607,-0.00009417,-0.00001557,0.00003152,
 -0.00003594,-0.08199964,0.03104821,0.07821206,0.00180593,0.00007071,0.
 00076917,-0.00336053,-0.00230224,-0.00406546,0.00219716,0.01207891,-0.
 01699157,-0.00042880,0.00069355,-0.00213938,-0.00075931,0.00063552,-0.
 00015431,-0.00240230,0.00259280,0.00091306,0.00019554,0.00004557,0.000
 31907,0.00029711,-0.00028552,-0.00012137,-0.00029034,-0.00023193,0.000
 22074,-0.05067385,-0.02470912,0.04190963,0.00023465,0.00019940,-0.0001
 6956,-0.00016625,0.00114563,-0.00050032,-0.00014617,-0.00030595,0.0002
 4051,-0.00022712,-0.00033068,-0.00014048,-0.00025556,0.00037416,0.0000
 5710,-0.00005215,-0.00002400,0.00008022,0.00000830,-0.00004060,0.00003
 828,0.00011668,-0.00000288,-0.00003760,-0.00003129,0.00005244,-0.00001
 558,0.00004096,0.00002810,0.00006111,-0.00522178,-0.01152681,0.0246161
 1,0.05911913,-0.00065521,-0.00606208,-0.00005096,-0.00249108,-0.000513
 13,-0.00086011,0.00289363,0.00337932,-0.00685662,-0.00005568,0.0005159
 2,-0.00071901,0.00003616,0.00010936,0.00032686,-0.00383919,-0.00940446
 ,0.02891213,0.00032814,-0.00021729,0.00050981,0.00011010,-0.00025884,-
 0.00030644,-0.00017798,-0.00006462,0.00008093,-0.02219231,-0.09426462,
 0.09998208,0.00195861,-0.00050269,0.00041124,-0.00010590,0.00043840,0.
 00014361,0.00003762,-0.00007157,0.00018913,0.00005832,0.00005122,-0.00
 014488,0.00031097,-0.00019499,-0.00043936,0.00028630,0.00055002,-0.001
 03981,-0.00002040,0.00000556,0.00001161,0.00006316,0.00001024,-0.00006
 684,-0.00001939,0.00005912,-0.00003153,-0.00002809,0.00003885,-0.00003
 344,0.00165928,0.00499575,-0.00945765,0.02184294,0.10140053,0.00006641
 ,-0.00171505,-0.00162784,-0.00203418,0.00043540,-0.00259254,0.00484170
 ,0.00840376,-0.01350148,0.00195004,0.00002726,-0.00084050,0.00070338,-
 0.00049098,0.00096664,-0.00097387,-0.00189998,0.00539079,0.00005358,0.
 00027983,-0.00037656,0.00044784,0.00015732,0.00063973,0.00021132,-0.00
 053759,-0.00021316,0.03865555,0.10075124,-0.25345884,0.00019226,-0.000
 02574,0.00013291,-0.00069491,0.00099072,0.00005732,-0.00050073,-0.0002
 9427,-0.00026764,-0.00059501,-0.00044288,0.00053607,-0.00008645,-0.000
 11432,0.00046027,-0.00004293,0.00075994,0.00002339,0.00005789,-0.00002
 314,-0.00004193,-0.00018843,-0.00005112,0.00012767,-0.00014674,0.00001
 600,-0.00003594,0.00006111,0.00003345,0.00006888,0.00291153,0.00430090
 ,-0.01005109,-0.04488936,-0.11056074,0.27460386\\0.00016873,0.00034357
 ,0.00050602,0.00097083,-0.00056804,-0.00043587,0.00409855,-0.00020387,
 -0.00328715,-0.00409848,-0.00020359,0.00328655,-0.00097143,-0.00056749
 ,0.00043583,0.00083569,0.00020540,-0.00034410,-0.00016910,0.00034301,-
 0.00050639,-0.00083507,0.00020492,0.00034420,-0.00041047,0.00015385,0.
 00033412,0.00041065,0.00015297,-0.00033342,-0.00007338,0.00002890,0.00
 007375,-0.00002654,0.00001248,0.00002951,0.00000953,-0.00000780,-0.000
 02754,-0.00000946,-0.00000821,0.00002773,0.00002667,0.00001240,-0.0000
 2920,0.00004733,-0.00000043,-0.00000135,0.00007340,0.00002899,-0.00007
 366,-0.00004734,-0.00000022,0.00000119,-0.00010207,0.00002780,-0.00015
 351,0.00010582,0.00000865,0.00006454,0.00010192,0.00002786,0.00015351,
 -0.00010578,0.00000884,-0.00006476\\\@


 A BIRD IN THE HAND IS SAFER THAN ONE OVERHEAD.

                       -- NEWTON'S SEVENTH LAW
 Job cpu time:       0 days  1 hours  4 minutes  1.6 seconds.
 Elapsed time:       0 days  0 hours  0 minutes 41.0 seconds.
 File lengths (MBytes):  RWF=    181 Int=      0 D2E=      0 Chk=     10 Scr=      1
 Normal termination of Gaussian 16 at Mon Jul 28 00:09:02 2025.
