 Entering Gaussian System, Link 0=g16
 Initial command:
 /home/hongchang/data/software/Gaussian/g16/l1.exe "/home/hongchang/data/software/Gaussian/g16/scratch/Gau-1342902.inp" -scrdir="/home/hongchang/data/software/Gaussian/g16/scratch/"
 Entering Link 1 = /home/hongchang/data/software/Gaussian/g16/l1.exe PID=   1342903.
  
 Copyright (c) 1988,1990,1992,1993,1995,1998,2003,2009,2016,
            Gaussian, Inc.  All Rights Reserved.
  
 This is part of the Gaussian(R) 16 program.  It is based on
 the Gaussian(R) 09 system (copyright 2009, Gaussian, Inc.),
 the Gaussian(R) 03 system (copyright 2003, Gaussian, Inc.),
 the Gaussian(R) 98 system (copyright 1998, Gaussian, Inc.),
 the Gaussian(R) 94 system (copyright 1995, Gaussian, Inc.),
 the Gaussian 92(TM) system (copyright 1992, Gaussian, Inc.),
 the Gaussian 90(TM) system (copyright 1990, Gaussian, Inc.),
 the Gaussian 88(TM) system (copyright 1988, Gaussian, Inc.),
 the Gaussian 86(TM) system (copyright 1986, Carnegie Mellon
 University), and the Gaussian 82(TM) system (copyright 1983,
 Carnegie Mellon University). Gaussian is a federally registered
 trademark of Gaussian, Inc.
  
 This software contains proprietary and confidential information,
 including trade secrets, belonging to Gaussian, Inc.
  
 This software is provided under written license and may be
 used, copied, transmitted, or stored only in accord with that
 written license.
  
 The following legend is applicable only to US Government
 contracts under FAR:
  
                    RESTRICTED RIGHTS LEGEND
  
 Use, reproduction and disclosure by the US Government is
 subject to restrictions as set forth in subparagraphs (a)
 and (c) of the Commercial Computer Software - Restricted
 Rights clause in FAR 52.227-19.
  
 Gaussian, Inc.
 340 Quinnipiac St., Bldg. 40, Wallingford CT 06492
  
  
 ---------------------------------------------------------------
 Warning -- This program may not be used in any manner that
 competes with the business of Gaussian, Inc. or will provide
 assistance to any competitor of Gaussian, Inc.  The licensee
 of this program is prohibited from giving any competitor of
 Gaussian, Inc. access to this program.  By using this program,
 the user acknowledges that Gaussian, Inc. is engaged in the
 business of creating and licensing software in the field of
 computational chemistry and represents and warrants to the
 licensee that it is not a competitor of Gaussian, Inc. and that
 it will not use this program in any manner prohibited above.
 ---------------------------------------------------------------
  

 Cite this work as:
 Gaussian 16, Revision A.03,
 M. J. Frisch, G. W. Trucks, H. B. Schlegel, G. E. Scuseria, 
 M. A. Robb, J. R. Cheeseman, G. Scalmani, V. Barone, 
 G. A. Petersson, H. Nakatsuji, X. Li, M. Caricato, A. V. Marenich, 
 J. Bloino, B. G. Janesko, R. Gomperts, B. Mennucci, H. P. Hratchian, 
 J. V. Ortiz, A. F. Izmaylov, J. L. Sonnenberg, D. Williams-Young, 
 F. Ding, F. Lipparini, F. Egidi, J. Goings, B. Peng, A. Petrone, 
 T. Henderson, D. Ranasinghe, V. G. Zakrzewski, J. Gao, N. Rega, 
 G. Zheng, W. Liang, M. Hada, M. Ehara, K. Toyota, R. Fukuda, 
 J. Hasegawa, M. Ishida, T. Nakajima, Y. Honda, O. Kitao, H. Nakai, 
 T. Vreven, K. Throssell, J. A. Montgomery, Jr., J. E. Peralta, 
 F. Ogliaro, M. J. Bearpark, J. J. Heyd, E. N. Brothers, K. N. Kudin, 
 V. N. Staroverov, T. A. Keith, R. Kobayashi, J. Normand, 
 K. Raghavachari, A. P. Rendell, J. C. Burant, S. S. Iyengar, 
 J. Tomasi, M. Cossi, J. M. Millam, M. Klene, C. Adamo, R. Cammi, 
 J. W. Ochterski, R. L. Martin, K. Morokuma, O. Farkas, 
 J. B. Foresman, and D. J. Fox, Gaussian, Inc., Wallingford CT, 2016.
 
 ******************************************
 Gaussian 16:  ES64L-G16RevA.03 25-Dec-2016
                28-Jul-2025 
 ******************************************
 %nprocshared=96
 Will use up to   96 processors via shared memory.
 %mem=600GB
 %chk=01_02_path1_1.chk
 -----------------------------------------------------------
 # freq b3lyp/6-311g(d,p) em=gd3bj scrf(solvent=Cis-Decalin)
 -----------------------------------------------------------
 1/10=4,30=1,38=1/1,3;
 2/12=2,17=6,18=5,40=1/2;
 3/5=4,6=6,7=101,11=2,25=1,30=1,70=2201,71=2,72=99,74=-5,124=41,140=1/1,2,3;
 4//1;
 5/5=2,38=5,53=99,98=1/2;
 8/6=4,10=90,11=11/1;
 11/6=1,8=1,9=11,15=111,16=1/1,2,10;
 10/6=1/2;
 6/7=2,8=2,9=2,10=2,28=1/1;
 7/8=1,10=1,25=1/1,2,3,16;
 1/10=4,30=1/3;
 99//99;
 -------------
 01_02_path1_1
 -------------
 Symbolic Z-matrix:
 Charge =  0 Multiplicity = 1
 C                    -1.36089  -1.16164   0.66204 
 C                    -0.72504  -0.1004    1.36268 
 C                    -0.80377   1.068     0.57199 
 C                     0.80374   1.06795  -0.57209 
 C                     0.72502  -0.10054  -1.36266 
 C                    -1.91945  -0.69123  -0.49263 
 C                     1.36091  -1.16169  -0.66192 
 C                     1.91949  -0.69115   0.49269 
 C                     1.88135   0.81185   0.47208 
 C                    -1.88136   0.81178  -0.47217 
 H                    -1.3368   -2.19941   0.96922 
 H                    -0.25072  -0.18277   2.32877 
 H                    -0.6909    2.05386   1.00907 
 H                     0.69085   2.05376  -1.00927 
 H                     0.25071  -0.18301  -2.32875 
 H                    -2.44653  -1.27654  -1.23321 
 H                     1.33684  -2.19949  -0.969 
 H                     2.4466   -1.27638   1.23331 
 H                     2.83878   1.19456   0.08666 
 H                     1.70796   1.28613   1.43897 
 H                    -2.83881   1.19449  -0.08679 
 H                    -1.70798   1.28598  -1.4391 
 

 GradGradGradGradGradGradGradGradGradGradGradGradGradGradGradGradGradGrad
 Berny optimization.
 Initialization pass.
 Trust Radius=3.00D-01 FncErr=1.00D-07 GrdErr=1.00D-07 EigMax=2.50D+02 EigMin=1.00D-04
 Number of steps in this run=      2 maximum allowed number of steps=      2.
 GradGradGradGradGradGradGradGradGradGradGradGradGradGradGradGradGradGrad

                          Input orientation:                          
 ---------------------------------------------------------------------
 Center     Atomic      Atomic             Coordinates (Angstroms)
 Number     Number       Type             X           Y           Z
 ---------------------------------------------------------------------
      1          6           0       -1.360894   -1.161636    0.662038
      2          6           0       -0.725043   -0.100404    1.362678
      3          6           0       -0.803765    1.068002    0.571989
      4          6           0        0.803739    1.067949   -0.572090
      5          6           0        0.725022   -0.100539   -1.362657
      6          6           0       -1.919451   -0.691231   -0.492633
      7          6           0        1.360913   -1.161687   -0.661920
      8          6           0        1.919489   -0.691153    0.492688
      9          6           0        1.881345    0.811850    0.472081
     10          6           0       -1.881355    0.811775   -0.472166
     11          1           0       -1.336804   -2.199411    0.969221
     12          1           0       -0.250723   -0.182772    2.328774
     13          1           0       -0.690897    2.053864    1.009073
     14          1           0        0.690850    2.053765   -1.009272
     15          1           0        0.250708   -0.183009   -2.328745
     16          1           0       -2.446533   -1.276539   -1.233209
     17          1           0        1.336841   -2.199494   -0.968999
     18          1           0        2.446602   -1.276376    1.233310
     19          1           0        2.838784    1.194559    0.086663
     20          1           0        1.707957    1.286132    1.438969
     21          1           0       -2.838808    1.194489   -0.086786
     22          1           0       -1.707976    1.285975   -1.439096
 ---------------------------------------------------------------------
                    Distance matrix (angstroms):
                    1          2          3          4          5
     1  C    0.000000
     2  C    1.421765   0.000000
     3  C    2.299954   1.412996   0.000000
     4  C    3.343614   2.728654   1.973065   0.000000
     5  C    3.094570   3.087092   2.728650   1.412996   0.000000
     6  C    1.366211   2.284265   2.339461   3.242960   2.845891
     7  C    3.026731   3.094597   3.343632   2.299954   1.421768
     8  C    3.318275   2.845947   3.242997   2.339464   2.284268
     9  C    3.800374   2.901487   2.699150   1.522207   2.352828
    10  C    2.334877   2.352824   1.522206   2.699137   2.901464
    11  H    1.082552   2.221461   3.334353   4.199191   3.754204
    12  H    2.229050   1.079400   2.226339   3.330346   3.819097
    13  H    3.302843   2.183363   1.084300   2.388732   3.503053
    14  H    4.164341   3.503048   2.388721   1.084299   2.183363
    15  H    3.535499   3.819099   3.330345   2.226337   1.079398
    16  H    2.187184   3.329482   3.384420   4.061769   3.385040
    17  H    3.318916   3.754233   4.199210   3.334354   2.221464
    18  H    3.851823   3.385111   4.061815   3.384424   3.329486
    19  H    4.849743   4.000751   3.676917   2.142754   2.871550
    20  H    4.001629   2.801391   2.666080   2.215755   3.276908
    21  H    2.880328   2.871532   2.142751   3.676912   4.000729
    22  H    3.244384   3.276910   2.215756   2.666073   2.801382
                    6          7          8          9         10
     6  C    0.000000
     7  C    3.318249   0.000000
     8  C    3.963372   1.366210   0.000000
     9  C    4.199521   2.334878   1.503628   0.000000
    10  C    1.503628   3.800376   4.199542   3.879370   0.000000
    11  H    2.179702   3.318911   3.620134   4.435237   3.382510
    12  H    3.317156   3.535519   2.887816   2.997048   3.390184
    13  H    3.361549   4.164362   3.823073   2.906439   2.270252
    14  H    3.823034   3.302843   3.361549   2.270251   2.906417
    15  H    2.887765   2.229052   3.317156   3.390184   2.997027
    16  H    1.081135   3.851780   4.731125   5.099011   2.293397
    17  H    3.620113   1.082553   2.179702   3.382512   4.435242
    18  H    4.731141   2.187183   1.081136   2.293398   5.099043
    19  H    5.150979   2.880343   2.136789   1.100774   4.768493
    20  H    4.560607   3.244379   2.202237   1.090816   4.093973
    21  H    2.136789   4.849742   5.151002   4.768500   1.100774
    22  H    2.202239   4.001641   4.560628   4.093973   1.090816
                   11         12         13         14         15
    11  H    0.000000
    12  H    2.663605   0.000000
    13  H    4.302224   2.633990   0.000000
    14  H    5.110315   4.126888   2.446005   0.000000
    15  H    4.178834   4.684433   4.126893   2.633988   0.000000
    16  H    2.633228   4.325001   4.381971   4.580856   3.109842
    17  H    3.302283   4.178856   5.110337   4.302225   2.663608
    18  H    3.903319   3.109915   4.580904   4.381972   4.325001
    19  H    5.452841   4.058221   3.748052   2.559869   3.798688
    20  H    4.651907   2.604968   2.555137   2.760009   4.298560
    21  H    3.858721   3.798679   2.559874   3.748042   4.058200
    22  H    4.252726   4.298564   2.760006   2.555116   2.604963
                   16         17         18         19         20
    16  H    0.000000
    17  H    3.903277   0.000000
    18  H    5.479643   2.633226   0.000000
    19  H    5.981886   3.858737   2.752113   0.000000
    20  H    5.564854   4.252720   2.674760   1.765187   0.000000
    21  H    2.752116   5.452840   5.981922   5.680241   4.796811
    22  H    2.674759   4.651924   5.564882   4.796804   4.466750
                   21         22
    21  H    0.000000
    22  H    1.765189   0.000000
 Stoichiometry    C10H12
 Framework group  C1[X(C10H12)]
 Deg. of freedom    60
 Full point group                 C1      NOp   1
 Largest Abelian subgroup         C1      NOp   1
 Largest concise Abelian subgroup C1      NOp   1
                         Standard orientation:                         
 ---------------------------------------------------------------------
 Center     Atomic      Atomic             Coordinates (Angstroms)
 Number     Number       Type             X           Y           Z
 ---------------------------------------------------------------------
      1          6           0        1.360173    1.173717    0.663491
      2          6           0        0.723553    0.112509    1.363467
      3          6           0        0.803136   -1.055922    0.572900
      4          6           0       -0.803117   -1.055898   -0.572936
      5          6           0       -0.723531    0.112566   -1.363452
      6          6           0        1.919991    0.703276   -0.490555
      7          6           0       -1.360184    1.173737   -0.663442
      8          6           0       -1.920024    0.703240    0.490568
      9          6           0       -1.881863   -0.799764    0.470048
     10          6           0        1.881867   -0.799730   -0.470084
     11          1           0        1.335751    2.211502    0.970616
     12          1           0        0.248177    0.194907    2.329042
     13          1           0        0.689786   -2.041770    1.009890
     14          1           0       -0.689753   -2.041727   -1.009964
     15          1           0       -0.248161    0.195005   -2.329023
     16          1           0        2.447884    1.288559   -1.230571
     17          1           0       -1.335773    2.211535   -0.970526
     18          1           0       -2.447945    1.288487    1.230596
     19          1           0       -2.838881   -1.182481    0.083595
     20          1           0       -1.709534   -1.274017    1.437140
     21          1           0        2.838897   -1.182435   -0.083646
     22          1           0        1.709544   -1.273958   -1.437188
 ---------------------------------------------------------------------
 Rotational constants (GHZ):           2.3934511           1.3262322           1.2630875
 Standard basis: 6-311G(d,p) (5D, 7F)
 There are   262 symmetry adapted cartesian basis functions of A   symmetry.
 There are   252 symmetry adapted basis functions of A   symmetry.
   252 basis functions,   416 primitive gaussians,   262 cartesian basis functions
    36 alpha electrons       36 beta electrons
       nuclear repulsion energy       521.3739990747 Hartrees.
 NAtoms=   22 NActive=   22 NUniq=   22 SFac= 1.00D+00 NAtFMM=   60 NAOKFM=F Big=F
 Integral buffers will be    131072 words long.
 Raffenetti 2 integral format.
 Two-electron integral symmetry is turned on.
 Nuclear repulsion after empirical dispersion term =      521.3284385130 Hartrees.
 Force inversion solution in PCM.
 ------------------------------------------------------------------------------
 Polarizable Continuum Model (PCM)
 =================================
 Model                : PCM.
 Atomic radii         : UFF (Universal Force Field).
 Polarization charges : Total charges.
 Charge compensation  : None.
 Solution method      : Matrix inversion.
 Cavity type          : Scaled VdW (van der Waals Surface) (Alpha=1.100).
 Cavity algorithm     : GePol (No added spheres)
                        Default sphere list used, NSphG=   22.
                        Lebedev-Laikov grids with approx.  5.0 points / Ang**2.
                        Smoothing algorithm: York/Karplus (Gamma=1.0000).
                        Polarization charges: spherical gaussians, with
                                              point-specific exponents (IZeta= 3).
                        Self-potential: point-specific (ISelfS= 7).
                        Self-field    : sphere-specific E.n sum rule (ISelfD= 2).
 1st derivatives      : Analytical E(r).r(x)/FMM algorithm (CHGder, D1EAlg=3).
                        Cavity 1st derivative terms included.
 2nd derivatives      : Analytical E(r).r(xy)/FMM algorithm (CHGder, D2EAlg=3).
                        Cavity 2nd derivative terms included.
 Solvent              : Cis-Decalin, Eps=   2.213900 Eps(inf)=   2.193361
 ------------------------------------------------------------------------------
 One-electron integrals computed using PRISM.
 NBasis=   252 RedAO= T EigKep=  5.30D-04  NBF=   252
 NBsUse=   252 1.00D-06 EigRej= -1.00D+00 NBFU=   252
 ExpMin= 1.03D-01 ExpMax= 4.56D+03 ExpMxC= 6.82D+02 IAcc=3 IRadAn=         5 AccDes= 0.00D+00
 Harris functional with IExCor=  402 and IRadAn=       5 diagonalized for initial guess.
 HarFok:  IExCor=  402 AccDes= 0.00D+00 IRadAn=         5 IDoV= 1 UseB2=F ITyADJ=14
 ICtDFT=  3500011 ScaDFX=  1.000000  1.000000  1.000000  1.000000
 FoFCou: FMM=F IPFlag=           0 FMFlag=      100000 FMFlg1=           0
         NFxFlg=           0 DoJE=T BraDBF=F KetDBF=T FulRan=T
         wScrn=  0.000000 ICntrl=       500 IOpCl=  0 I1Cent=   200000004 NGrid=           0
         NMat0=    1 NMatS0=      1 NMatT0=    0 NMatD0=    1 NMtDS0=    0 NMtDT0=    0
 Petite list used in FoFCou.
 Requested convergence on RMS density matrix=1.00D-08 within 128 cycles.
 Requested convergence on MAX density matrix=1.00D-06.
 Requested convergence on             energy=1.00D-06.
 No special actions if energy rises.
 Inv3:  Mode=1 IEnd=     7022700.
 Iteration    1 A*A^-1 deviation from unit magnitude is 5.33D-15 for    318.
 Iteration    1 A*A^-1 deviation from orthogonality  is 1.93D-15 for   1468    673.
 Iteration    1 A^-1*A deviation from unit magnitude is 6.33D-15 for    309.
 Iteration    1 A^-1*A deviation from orthogonality  is 1.37D-15 for   1493    674.
 Error on total polarization charges =  0.00624
 SCF Done:  E(RB3LYP) =  -388.319389397     A.U. after   12 cycles
            NFock= 12  Conv=0.34D-08     -V/T= 2.0047
 DoSCS=F DFT=T ScalE2(SS,OS)=  1.000000  1.000000
 Range of M.O.s used for correlation:     1   252
 NBasis=   252 NAE=    36 NBE=    36 NFC=     0 NFV=     0
 NROrb=    252 NOA=    36 NOB=    36 NVA=   216 NVB=   216
 Symmetrizing basis deriv contribution to polar:
 IMax=3 JMax=2 DiffMx= 0.00D+00
 G2DrvN: will do    23 centers at a time, making    1 passes.
 Calling FoFCou, ICntrl=  3107 FMM=F I1Cent=   0 AccDes= 0.00D+00.
 NEqPCM:  Using equilibrium solvation (IEInf=0, Eps=   2.2139, EpsInf=   2.1934)
 G2PCM: DoFxE=T DoFxN=T DoGrad=T DoDP/DQ/DG/TGxP=FFFF NFrqRd=   0 IEInf=0 SqF1=F DoCFld=F IF1Alg=4.
 End of G2Drv F.D. properties file   721 does not exist.
 End of G2Drv F.D. properties file   722 does not exist.
 End of G2Drv F.D. properties file   788 does not exist.
          IDoAtm=1111111111111111111111
 NEqPCM:  Using equilibrium solvation (IEInf=0, Eps=   2.2139, EpsInf=   2.1934)
          Differentiating once with respect to electric field.
                with respect to dipole field.
          Differentiating once with respect to nuclear coordinates.
 Keep R1 ints in memory in canonical form, NReq=612588626.
          There are    69 degrees of freedom in the 1st order CPHF.  IDoFFX=6 NUNeed=     3.
     66 vectors produced by pass  0 Test12= 1.13D-14 1.45D-09 XBig12= 2.87D+02 1.50D+01.
 AX will form    66 AO Fock derivatives at one time.
     66 vectors produced by pass  1 Test12= 1.13D-14 1.45D-09 XBig12= 4.46D+01 1.23D+00.
     66 vectors produced by pass  2 Test12= 1.13D-14 1.45D-09 XBig12= 4.05D-01 1.14D-01.
     66 vectors produced by pass  3 Test12= 1.13D-14 1.45D-09 XBig12= 9.57D-04 5.66D-03.
     66 vectors produced by pass  4 Test12= 1.13D-14 1.45D-09 XBig12= 1.72D-06 2.28D-04.
     48 vectors produced by pass  5 Test12= 1.13D-14 1.45D-09 XBig12= 1.83D-09 4.92D-06.
      8 vectors produced by pass  6 Test12= 1.13D-14 1.45D-09 XBig12= 1.84D-12 2.23D-07.
      3 vectors produced by pass  7 Test12= 1.13D-14 1.45D-09 XBig12= 1.78D-15 5.43D-09.
 InvSVY:  IOpt=1 It=  1 EMax= 5.33D-15
 Solved reduced A of dimension   389 with    69 vectors.
 Isotropic polarizability for W=    0.000000      132.79 Bohr**3.
 End of Minotr F.D. properties file   721 does not exist.
 End of Minotr F.D. properties file   722 does not exist.
 End of Minotr F.D. properties file   788 does not exist.

 **********************************************************************

            Population analysis using the SCF density.

 **********************************************************************

 Orbital symmetries:
       Occupied  (A) (A) (A) (A) (A) (A) (A) (A) (A) (A) (A) (A)
                 (A) (A) (A) (A) (A) (A) (A) (A) (A) (A) (A) (A)
                 (A) (A) (A) (A) (A) (A) (A) (A) (A) (A) (A) (A)
       Virtual   (A) (A) (A) (A) (A) (A) (A) (A) (A) (A) (A) (A)
                 (A) (A) (A) (A) (A) (A) (A) (A) (A) (A) (A) (A)
                 (A) (A) (A) (A) (A) (A) (A) (A) (A) (A) (A) (A)
                 (A) (A) (A) (A) (A) (A) (A) (A) (A) (A) (A) (A)
                 (A) (A) (A) (A) (A) (A) (A) (A) (A) (A) (A) (A)
                 (A) (A) (A) (A) (A) (A) (A) (A) (A) (A) (A) (A)
                 (A) (A) (A) (A) (A) (A) (A) (A) (A) (A) (A) (A)
                 (A) (A) (A) (A) (A) (A) (A) (A) (A) (A) (A) (A)
                 (A) (A) (A) (A) (A) (A) (A) (A) (A) (A) (A) (A)
                 (A) (A) (A) (A) (A) (A) (A) (A) (A) (A) (A) (A)
                 (A) (A) (A) (A) (A) (A) (A) (A) (A) (A) (A) (A)
                 (A) (A) (A) (A) (A) (A) (A) (A) (A) (A) (A) (A)
                 (A) (A) (A) (A) (A) (A) (A) (A) (A) (A) (A) (A)
                 (A) (A) (A) (A) (A) (A) (A) (A) (A) (A) (A) (A)
                 (A) (A) (A) (A) (A) (A) (A) (A) (A) (A) (A) (A)
                 (A) (A) (A) (A) (A) (A) (A) (A) (A) (A) (A) (A)
                 (A) (A) (A) (A) (A) (A) (A) (A) (A) (A) (A) (A)
                 (A) (A) (A) (A) (A) (A) (A) (A) (A) (A) (A) (A)
 The electronic state is 1-A.
 Alpha  occ. eigenvalues --  -10.17834 -10.17833 -10.16884 -10.16884 -10.16427
 Alpha  occ. eigenvalues --  -10.16427 -10.16073 -10.16072 -10.15963 -10.15962
 Alpha  occ. eigenvalues --   -0.86832  -0.83954  -0.71818  -0.70634  -0.69118
 Alpha  occ. eigenvalues --   -0.68346  -0.55918  -0.55053  -0.53181  -0.51620
 Alpha  occ. eigenvalues --   -0.51544  -0.50061  -0.45239  -0.42197  -0.39277
 Alpha  occ. eigenvalues --   -0.38060  -0.37485  -0.37009  -0.36364  -0.36069
 Alpha  occ. eigenvalues --   -0.35686  -0.34314  -0.31800  -0.26276  -0.25977
 Alpha  occ. eigenvalues --   -0.18223
 Alpha virt. eigenvalues --   -0.03904   0.02831   0.03176   0.04682   0.07388
 Alpha virt. eigenvalues --    0.07775   0.07804   0.09620   0.09768   0.10830
 Alpha virt. eigenvalues --    0.10941   0.12487   0.12785   0.14985   0.15080
 Alpha virt. eigenvalues --    0.17573   0.18671   0.19903   0.21874   0.22810
 Alpha virt. eigenvalues --    0.26585   0.27651   0.30600   0.31183   0.31823
 Alpha virt. eigenvalues --    0.32724   0.35393   0.38040   0.38190   0.38647
 Alpha virt. eigenvalues --    0.39377   0.40576   0.41513   0.42090   0.43274
 Alpha virt. eigenvalues --    0.44513   0.44934   0.45646   0.46502   0.49596
 Alpha virt. eigenvalues --    0.50087   0.52121   0.54965   0.55353   0.56126
 Alpha virt. eigenvalues --    0.56365   0.58782   0.59141   0.59717   0.59791
 Alpha virt. eigenvalues --    0.60525   0.61341   0.61956   0.63629   0.64097
 Alpha virt. eigenvalues --    0.64574   0.65673   0.66371   0.68130   0.69988
 Alpha virt. eigenvalues --    0.70133   0.70788   0.71617   0.74215   0.75897
 Alpha virt. eigenvalues --    0.78740   0.80916   0.82706   0.85955   0.87320
 Alpha virt. eigenvalues --    0.88225   0.91177   0.92837   0.97820   0.99214
 Alpha virt. eigenvalues --    1.04598   1.05374   1.05901   1.09557   1.14818
 Alpha virt. eigenvalues --    1.14836   1.18884   1.19417   1.22377   1.22571
 Alpha virt. eigenvalues --    1.26041   1.29727   1.33658   1.38665   1.41925
 Alpha virt. eigenvalues --    1.46400   1.48211   1.49242   1.49892   1.51654
 Alpha virt. eigenvalues --    1.51803   1.52866   1.54304   1.55900   1.57373
 Alpha virt. eigenvalues --    1.58460   1.59415   1.60026   1.60671   1.61381
 Alpha virt. eigenvalues --    1.64008   1.64633   1.67104   1.67850   1.71345
 Alpha virt. eigenvalues --    1.71976   1.73058   1.74453   1.76387   1.77575
 Alpha virt. eigenvalues --    1.77835   1.82156   1.82423   1.82784   1.83803
 Alpha virt. eigenvalues --    1.84438   1.86501   1.86644   1.87651   1.89088
 Alpha virt. eigenvalues --    1.92278   1.92387   1.94149   1.97685   1.98203
 Alpha virt. eigenvalues --    2.00173   2.00635   2.02236   2.05851   2.07921
 Alpha virt. eigenvalues --    2.13176   2.13359   2.16487   2.17153   2.17854
 Alpha virt. eigenvalues --    2.22192   2.22701   2.26825   2.30332   2.33223
 Alpha virt. eigenvalues --    2.35039   2.36801   2.37338   2.40126   2.41938
 Alpha virt. eigenvalues --    2.44763   2.45623   2.48928   2.50128   2.51252
 Alpha virt. eigenvalues --    2.53056   2.60324   2.60394   2.60515   2.62752
 Alpha virt. eigenvalues --    2.63774   2.67693   2.68417   2.69566   2.70705
 Alpha virt. eigenvalues --    2.71190   2.74361   2.74940   2.77051   2.78593
 Alpha virt. eigenvalues --    2.81029   2.84266   2.87470   2.91206   2.91983
 Alpha virt. eigenvalues --    2.92126   2.93320   2.95989   3.00384   3.04895
 Alpha virt. eigenvalues --    3.09135   3.09227   3.10924   3.18014   3.19642
 Alpha virt. eigenvalues --    3.30983   3.32970   3.39576   3.43088   3.44761
 Alpha virt. eigenvalues --    3.46941   3.47738   3.54479   3.59716   3.77277
 Alpha virt. eigenvalues --    3.79317   4.03270   4.03834   4.06564   4.08914
 Alpha virt. eigenvalues --    4.09333   4.12877   4.15937   4.19545   4.49939
 Alpha virt. eigenvalues --    4.52429  23.63420  23.75450  23.89080  23.89509
 Alpha virt. eigenvalues --   23.90898  23.99461  24.09401  24.10608  24.19695
 Alpha virt. eigenvalues --   24.20108
          Condensed to atoms (all electrons):
               1          2          3          4          5          6
     1  C    4.866589   0.465592  -0.076909  -0.009130   0.006943   0.555468
     2  C    0.465592   5.048677   0.486263  -0.059774  -0.056579  -0.091810
     3  C   -0.076909   0.486263   5.207652   0.130778  -0.059775  -0.090289
     4  C   -0.009130  -0.059774   0.130778   5.207650   0.486264  -0.016309
     5  C    0.006943  -0.056579  -0.059775   0.486264   5.048680   0.043542
     6  C    0.555468  -0.091810  -0.090289  -0.016309   0.043542   5.096037
     7  C   -0.015950   0.006943  -0.009129  -0.076909   0.465587  -0.011109
     8  C   -0.011108   0.043537  -0.016307  -0.090288  -0.091809  -0.003390
     9  C    0.000492  -0.013024  -0.040701   0.375139  -0.093018   0.000913
    10  C   -0.089247  -0.093017   0.375136  -0.040702  -0.013025   0.369338
    11  H    0.421442  -0.044579   0.006612  -0.000189   0.000239  -0.045315
    12  H   -0.036830   0.419892  -0.041078  -0.001454   0.000242   0.006419
    13  H    0.007739  -0.036004   0.407920  -0.020999   0.003981   0.006265
    14  H   -0.000160   0.003980  -0.021000   0.407920  -0.036004  -0.000225
    15  H   -0.000465   0.000243  -0.001454  -0.041077   0.419892   0.002491
    16  H   -0.038130   0.008427   0.005114   0.000305  -0.001627   0.417048
    17  H    0.001937   0.000239  -0.000189   0.006612  -0.044579   0.000550
    18  H    0.000132  -0.001627   0.000305   0.005114   0.008426   0.000041
    19  H   -0.000227   0.003546   0.006902  -0.030953  -0.000375  -0.000243
    20  H    0.000842  -0.003683  -0.003799  -0.042808   0.008355   0.000119
    21  H   -0.002065  -0.000375  -0.030953   0.006902   0.003546  -0.036915
    22  H    0.005681   0.008355  -0.042808  -0.003799  -0.003683  -0.036812
               7          8          9         10         11         12
     1  C   -0.015950  -0.011108   0.000492  -0.089247   0.421442  -0.036830
     2  C    0.006943   0.043537  -0.013024  -0.093017  -0.044579   0.419892
     3  C   -0.009129  -0.016307  -0.040701   0.375136   0.006612  -0.041078
     4  C   -0.076909  -0.090288   0.375139  -0.040702  -0.000189  -0.001454
     5  C    0.465587  -0.091809  -0.093018  -0.013025   0.000239   0.000242
     6  C   -0.011109  -0.003390   0.000913   0.369338  -0.045315   0.006419
     7  C    4.866587   0.555474  -0.089247   0.000492   0.001937  -0.000465
     8  C    0.555474   5.096029   0.369338   0.000913   0.000550   0.002491
     9  C   -0.089247   0.369338   4.892628   0.004380  -0.000078  -0.000036
    10  C    0.000492   0.000913   0.004380   4.892632   0.008637   0.006760
    11  H    0.001937   0.000550  -0.000078   0.008637   0.573292  -0.002983
    12  H   -0.000465   0.002491  -0.000036   0.006760  -0.002983   0.551195
    13  H   -0.000160  -0.000225  -0.002895  -0.029626  -0.000276  -0.003905
    14  H    0.007739   0.006265  -0.029626  -0.002896   0.000033  -0.000077
    15  H   -0.036829   0.006419   0.006760  -0.000037  -0.000047   0.000003
    16  H    0.000132   0.000041  -0.000000  -0.037646  -0.004908  -0.000316
    17  H    0.421441  -0.045315   0.008637  -0.000078   0.000115  -0.000047
    18  H   -0.038129   0.417048  -0.037646  -0.000000   0.000020   0.000287
    19  H   -0.002065  -0.036915   0.386556  -0.000263  -0.000000   0.000114
    20  H    0.005681  -0.036811   0.409490   0.000532  -0.000012  -0.000152
    21  H   -0.000227  -0.000243  -0.000263   0.386555  -0.000433  -0.000316
    22  H    0.000842   0.000119   0.000532   0.409491  -0.000262  -0.000293
              13         14         15         16         17         18
     1  C    0.007739  -0.000160  -0.000465  -0.038130   0.001937   0.000132
     2  C   -0.036004   0.003980   0.000243   0.008427   0.000239  -0.001627
     3  C    0.407920  -0.021000  -0.001454   0.005114  -0.000189   0.000305
     4  C   -0.020999   0.407920  -0.041077   0.000305   0.006612   0.005114
     5  C    0.003981  -0.036004   0.419892  -0.001627  -0.044579   0.008426
     6  C    0.006265  -0.000225   0.002491   0.417048   0.000550   0.000041
     7  C   -0.000160   0.007739  -0.036829   0.000132   0.421441  -0.038129
     8  C   -0.000225   0.006265   0.006419   0.000041  -0.045315   0.417048
     9  C   -0.002895  -0.029626   0.006760  -0.000000   0.008637  -0.037646
    10  C   -0.029626  -0.002896  -0.000037  -0.037646  -0.000078  -0.000000
    11  H   -0.000276   0.000033  -0.000047  -0.004908   0.000115   0.000020
    12  H   -0.003905  -0.000077   0.000003  -0.000316  -0.000047   0.000287
    13  H    0.548701  -0.003091  -0.000077  -0.000317   0.000033   0.000021
    14  H   -0.003091   0.548700  -0.003905   0.000021  -0.000276  -0.000317
    15  H   -0.000077  -0.003905   0.551193   0.000287  -0.002983  -0.000316
    16  H   -0.000317   0.000021   0.000287   0.559016   0.000020  -0.000000
    17  H    0.000033  -0.000276  -0.002983   0.000020   0.573292  -0.004908
    18  H    0.000021  -0.000317  -0.000316  -0.000000  -0.004908   0.559016
    19  H   -0.000347  -0.001950  -0.000316   0.000001  -0.000433   0.000352
    20  H    0.002281  -0.000793  -0.000293  -0.000005  -0.000262  -0.001985
    21  H   -0.001950  -0.000347   0.000114   0.000352  -0.000000   0.000001
    22  H   -0.000793   0.002281  -0.000152  -0.001985  -0.000012  -0.000005
              19         20         21         22
     1  C   -0.000227   0.000842  -0.002065   0.005681
     2  C    0.003546  -0.003683  -0.000375   0.008355
     3  C    0.006902  -0.003799  -0.030953  -0.042808
     4  C   -0.030953  -0.042808   0.006902  -0.003799
     5  C   -0.000375   0.008355   0.003546  -0.003683
     6  C   -0.000243   0.000119  -0.036915  -0.036812
     7  C   -0.002065   0.005681  -0.000227   0.000842
     8  C   -0.036915  -0.036811  -0.000243   0.000119
     9  C    0.386556   0.409490  -0.000263   0.000532
    10  C   -0.000263   0.000532   0.386555   0.409491
    11  H   -0.000000  -0.000012  -0.000433  -0.000262
    12  H    0.000114  -0.000152  -0.000316  -0.000293
    13  H   -0.000347   0.002281  -0.001950  -0.000793
    14  H   -0.001950  -0.000793  -0.000347   0.002281
    15  H   -0.000316  -0.000293   0.000114  -0.000152
    16  H    0.000001  -0.000005   0.000352  -0.001985
    17  H   -0.000433  -0.000262  -0.000000  -0.000012
    18  H    0.000352  -0.001985   0.000001  -0.000005
    19  H    0.577569  -0.032236  -0.000002  -0.000052
    20  H   -0.032236   0.577298  -0.000052  -0.000018
    21  H   -0.000002  -0.000052   0.577568  -0.032236
    22  H   -0.000052  -0.000018  -0.032236   0.577298
 Mulliken charges:
               1
     1  C   -0.052637
     2  C   -0.095222
     3  C   -0.192291
     4  C   -0.192291
     5  C   -0.095225
     6  C   -0.165817
     7  C   -0.052637
     8  C   -0.165815
     9  C   -0.148330
    10  C   -0.148330
    11  H    0.086208
    12  H    0.100547
    13  H    0.123723
    14  H    0.123724
    15  H    0.100549
    16  H    0.094171
    17  H    0.086208
    18  H    0.094171
    19  H    0.131337
    20  H    0.118310
    21  H    0.131337
    22  H    0.118310
 Sum of Mulliken charges =  -0.00000
 Mulliken charges with hydrogens summed into heavy atoms:
               1
     1  C    0.033571
     2  C    0.005325
     3  C   -0.068568
     4  C   -0.068567
     5  C    0.005324
     6  C   -0.071646
     7  C    0.033571
     8  C   -0.071644
     9  C    0.101317
    10  C    0.101317
 APT charges:
               1
     1  C   -0.013596
     2  C   -0.140880
     3  C    0.087083
     4  C    0.087074
     5  C   -0.140871
     6  C   -0.034376
     7  C   -0.013594
     8  C   -0.034383
     9  C    0.013405
    10  C    0.013405
    11  H    0.040936
    12  H    0.049728
    13  H    0.002776
    14  H    0.002776
    15  H    0.049727
    16  H    0.019399
    17  H    0.040935
    18  H    0.019402
    19  H   -0.029513
    20  H    0.005040
    21  H   -0.029514
    22  H    0.005040
 Sum of APT charges =   0.00000
 APT charges with hydrogens summed into heavy atoms:
               1
     1  C    0.027340
     2  C   -0.091151
     3  C    0.089860
     4  C    0.089850
     5  C   -0.091144
     6  C   -0.014977
     7  C    0.027341
     8  C   -0.014981
     9  C   -0.011068
    10  C   -0.011070
 Electronic spatial extent (au):  <R**2>=           1175.5516
 Charge=              0.0000 electrons
 Dipole moment (field-independent basis, Debye):
    X=             -0.0000    Y=             -0.5717    Z=             -0.0000  Tot=              0.5717
 Quadrupole moment (field-independent basis, Debye-Ang):
   XX=            -62.7818   YY=            -57.0132   ZZ=            -59.8109
   XY=              0.0001   XZ=             -3.9649   YZ=              0.0000
 Traceless Quadrupole moment (field-independent basis, Debye-Ang):
   XX=             -2.9132   YY=              2.8554   ZZ=              0.0578
   XY=              0.0001   XZ=             -3.9649   YZ=              0.0000
 Octapole moment (field-independent basis, Debye-Ang**2):
  XXX=             -0.0003  YYY=              2.1256  ZZZ=             -0.0001  XYY=             -0.0000
  XXY=             -2.3693  XXZ=              0.0000  XZZ=             -0.0000  YZZ=              1.1195
  YYZ=             -0.0001  XYZ=             -1.0196
 Hexadecapole moment (field-independent basis, Debye-Ang**3):
 XXXX=           -899.7262 YYYY=           -389.5001 ZZZZ=           -347.8309 XXXY=              0.0001
 XXXZ=            -26.1113 YYYX=             -0.0000 YYYZ=              0.0001 ZZZX=            -18.1587
 ZZZY=             -0.0000 XXYY=           -210.3801 XXZZ=           -213.2584 YYZZ=           -123.0671
 XXYZ=              0.0004 YYXZ=             -1.2863 ZZXY=              0.0004
 N-N= 5.213284385130D+02 E-N=-1.943268196575D+03  KE= 3.865027202587D+02
  Exact polarizability: 161.928   0.000 118.630  -3.267  -0.000 117.810
 Approx polarizability: 249.445   0.001 173.338   2.225  -0.001 197.465
 D2PCM: PCM CHGder 2nd derivatives, FixD1E=F FixD2E=F DoIter=F DoCFld=F I1PDM=0
 Calling FoFJK, ICntrl=    100127 FMM=F ISym2X=0 I1Cent= 0 IOpClX= 0 NMat=1 NMatS=1 NMatT=0.
 Full mass-weighted force constant matrix:
 Low frequencies --- -443.2600  -19.5995  -17.5805   -2.2970   -0.0004   -0.0004
 Low frequencies ---   -0.0003  105.1824  140.1712
 ******    1 imaginary frequencies (negative Signs) ****** 
 Diagonal vibrational polarizability:
        8.0922985       2.2534271       7.4450555
 Harmonic frequencies (cm**-1), IR intensities (KM/Mole), Raman scattering
 activities (A**4/AMU), depolarization ratios for plane and unpolarized
 incident light, reduced masses (AMU), force constants (mDyne/A),
 and normal coordinates:
                      1                      2                      3
                      A                      A                      A
 Frequencies --   -443.2599               105.1711               140.1579
 Red. masses --      9.2737                 4.5309                 3.3188
 Frc consts  --      1.0735                 0.0295                 0.0384
 IR Inten    --      0.9235                 1.0315                 0.0350
  Atom  AN      X      Y      Z        X      Y      Z        X      Y      Z
     1   6     0.02   0.04  -0.06     0.03   0.06   0.01     0.08   0.03  -0.13
     2   6     0.11  -0.07   0.05    -0.19   0.09  -0.11    -0.00   0.14  -0.04
     3   6     0.45  -0.01   0.36    -0.11   0.08  -0.08    -0.06   0.07   0.06
     4   6    -0.45  -0.01  -0.36    -0.11  -0.08  -0.08     0.06   0.07  -0.06
     5   6    -0.11  -0.07  -0.05    -0.19  -0.09  -0.11     0.00   0.14   0.04
     6   6     0.09   0.02   0.04     0.23   0.03   0.14     0.11  -0.12  -0.05
     7   6    -0.02   0.04   0.06     0.03  -0.06   0.01    -0.08   0.03   0.13
     8   6    -0.09   0.02  -0.04     0.23  -0.03   0.14    -0.11  -0.12   0.05
     9   6    -0.04   0.02  -0.04     0.02  -0.04   0.04    -0.01  -0.11  -0.09
    10   6     0.04   0.02   0.04     0.02   0.04   0.04     0.01  -0.11   0.09
    11   1    -0.10   0.04  -0.10     0.07   0.06   0.02     0.14   0.07  -0.23
    12   1    -0.04   0.02  -0.03    -0.19   0.08  -0.11    -0.02   0.26  -0.06
    13   1     0.00  -0.07   0.06    -0.12   0.09  -0.06    -0.14   0.11   0.15
    14   1    -0.00  -0.07  -0.06    -0.12  -0.09  -0.06     0.14   0.11  -0.15
    15   1     0.04   0.02   0.03    -0.19  -0.08  -0.11     0.02   0.26   0.06
    16   1     0.06  -0.00   0.00     0.39   0.01   0.22     0.18  -0.23  -0.09
    17   1     0.10   0.04   0.10     0.07  -0.06   0.03    -0.14   0.07   0.23
    18   1    -0.06  -0.00  -0.00     0.39  -0.01   0.22    -0.18  -0.23   0.09
    19   1    -0.15   0.03   0.19    -0.06   0.13   0.08     0.03  -0.13  -0.17
    20   1     0.14   0.01  -0.08     0.04  -0.14  -0.02    -0.02  -0.19  -0.12
    21   1     0.15   0.03  -0.19    -0.06  -0.13   0.08    -0.03  -0.13   0.17
    22   1    -0.14   0.01   0.08     0.04   0.14  -0.02     0.02  -0.19   0.12
                      4                      5                      6
                      A                      A                      A
 Frequencies --    179.0293               265.3523               324.5381
 Red. masses --      3.9894                 3.2626                 3.5862
 Frc consts  --      0.0753                 0.1354                 0.2225
 IR Inten    --      0.4513                 0.0103                 0.0780
  Atom  AN      X      Y      Z        X      Y      Z        X      Y      Z
     1   6     0.21  -0.03   0.11     0.16   0.06   0.06     0.11  -0.01   0.11
     2   6     0.10  -0.03   0.01     0.07   0.09   0.04     0.06   0.03   0.13
     3   6     0.00   0.02  -0.08    -0.06   0.09   0.02    -0.06   0.04   0.12
     4   6    -0.00   0.02   0.08    -0.06  -0.09   0.02     0.06   0.04  -0.12
     5   6    -0.10  -0.03  -0.01     0.07  -0.09   0.04    -0.06   0.03  -0.13
     6   6     0.22   0.02   0.09    -0.02   0.06  -0.03    -0.14  -0.03   0.00
     7   6    -0.21  -0.03  -0.11     0.16  -0.06   0.06    -0.11  -0.01  -0.11
     8   6    -0.22   0.02  -0.09    -0.02  -0.06  -0.03     0.14  -0.03  -0.00
     9   6    -0.03   0.02   0.06    -0.15  -0.06  -0.09     0.18  -0.03  -0.02
    10   6     0.03   0.02  -0.06    -0.15   0.06  -0.09    -0.18  -0.03   0.02
    11   1     0.33  -0.05   0.21     0.35   0.04   0.14     0.27  -0.02   0.16
    12   1     0.07  -0.06  -0.00     0.17   0.08   0.10     0.19   0.03   0.20
    13   1     0.00   0.01  -0.11    -0.02   0.10   0.05    -0.14   0.04   0.10
    14   1    -0.00   0.01   0.11    -0.02  -0.10   0.05     0.14   0.04  -0.10
    15   1    -0.07  -0.06   0.00     0.17  -0.08   0.10    -0.19   0.03  -0.20
    16   1     0.31   0.03   0.17    -0.02   0.04  -0.04    -0.20  -0.06  -0.07
    17   1    -0.33  -0.05  -0.21     0.35  -0.04   0.14    -0.27  -0.02  -0.16
    18   1    -0.31   0.03  -0.17    -0.02  -0.04  -0.04     0.20  -0.06   0.07
    19   1     0.02  -0.14   0.10    -0.14   0.03  -0.23     0.13  -0.02   0.11
    20   1     0.02   0.15   0.11    -0.30  -0.12  -0.09     0.31  -0.04  -0.05
    21   1    -0.02  -0.14  -0.10    -0.14  -0.03  -0.23    -0.13  -0.02  -0.11
    22   1    -0.02   0.15  -0.11    -0.30   0.12  -0.09    -0.31  -0.04   0.05
                      7                      8                      9
                      A                      A                      A
 Frequencies --    418.2392               444.5856               557.6589
 Red. masses --      1.9888                 1.8582                 2.8314
 Frc consts  --      0.2050                 0.2164                 0.5188
 IR Inten    --      0.1563                 0.6134                 1.7689
  Atom  AN      X      Y      Z        X      Y      Z        X      Y      Z
     1   6    -0.06   0.00  -0.02     0.08  -0.01   0.05    -0.13   0.04  -0.06
     2   6    -0.11   0.02  -0.04     0.00   0.00  -0.02     0.17  -0.03   0.11
     3   6    -0.00   0.01   0.02    -0.08   0.02  -0.07    -0.07   0.02  -0.02
     4   6     0.00   0.01  -0.02    -0.08  -0.02  -0.07     0.07   0.02   0.02
     5   6     0.11   0.02   0.04     0.00  -0.00  -0.02    -0.17  -0.03  -0.11
     6   6     0.06  -0.02   0.05    -0.08   0.02  -0.06     0.08  -0.01   0.07
     7   6     0.06   0.00   0.02     0.08   0.01   0.05     0.13   0.04   0.06
     8   6    -0.06  -0.02  -0.05    -0.08  -0.02  -0.06    -0.08  -0.01  -0.07
     9   6     0.12  -0.01   0.08     0.05  -0.02   0.07     0.02  -0.01  -0.02
    10   6    -0.12  -0.01  -0.08     0.05   0.02   0.07    -0.02  -0.01   0.02
    11   1    -0.08   0.01  -0.05     0.21  -0.03   0.14    -0.36   0.08  -0.20
    12   1    -0.21   0.05  -0.09    -0.03   0.01  -0.04     0.35  -0.07   0.20
    13   1    -0.06   0.01  -0.01    -0.12   0.02  -0.08    -0.04   0.01  -0.02
    14   1     0.06   0.01   0.01    -0.12  -0.02  -0.08     0.04   0.01   0.02
    15   1     0.21   0.05   0.09    -0.04  -0.01  -0.04    -0.35  -0.07  -0.20
    16   1     0.13  -0.02   0.10    -0.07   0.01  -0.06    -0.04  -0.01  -0.01
    17   1     0.08   0.01   0.05     0.21   0.03   0.14     0.36   0.08   0.20
    18   1    -0.13  -0.02  -0.10    -0.07  -0.01  -0.06     0.04  -0.01   0.01
    19   1     0.10  -0.23   0.35     0.00  -0.23   0.39     0.09  -0.20   0.00
    20   1     0.37   0.16   0.12     0.34   0.17   0.11     0.08   0.12   0.03
    21   1    -0.10  -0.23  -0.35     0.00   0.23   0.39    -0.09  -0.20  -0.00
    22   1    -0.37   0.16  -0.12     0.34  -0.17   0.11    -0.08   0.12  -0.03
                     10                     11                     12
                      A                      A                      A
 Frequencies --    596.0480               706.3533               707.8370
 Red. masses --      2.4201                 1.2643                 1.2008
 Frc consts  --      0.5066                 0.3717                 0.3545
 IR Inten    --      2.3260                 1.4876                72.8008
  Atom  AN      X      Y      Z        X      Y      Z        X      Y      Z
     1   6    -0.08   0.05  -0.06    -0.05  -0.01  -0.04    -0.05  -0.02  -0.04
     2   6     0.14  -0.03   0.06     0.01  -0.02  -0.01     0.00  -0.01   0.00
     3   6    -0.12   0.03  -0.07    -0.00  -0.01   0.01     0.02  -0.01   0.02
     4   6    -0.12  -0.03  -0.07     0.00  -0.01  -0.01     0.02   0.01   0.02
     5   6     0.14   0.03   0.06    -0.01  -0.02   0.01     0.00   0.01   0.00
     6   6     0.07   0.01   0.03    -0.01   0.02  -0.04    -0.02   0.02  -0.04
     7   6    -0.08  -0.05  -0.06     0.05  -0.01   0.04    -0.05   0.02  -0.04
     8   6     0.07  -0.01   0.03     0.01   0.02   0.04    -0.02  -0.02  -0.04
     9   6    -0.02  -0.01   0.03     0.06   0.03  -0.01    -0.04  -0.02  -0.00
    10   6    -0.02   0.01   0.03    -0.06   0.03   0.01    -0.04   0.02  -0.00
    11   1    -0.22   0.06  -0.13     0.17  -0.05   0.13     0.20  -0.06   0.13
    12   1     0.46  -0.10   0.22     0.18  -0.03   0.08     0.15  -0.02   0.08
    13   1    -0.10   0.01  -0.09    -0.01  -0.03  -0.03     0.04  -0.03  -0.01
    14   1    -0.10  -0.01  -0.09     0.01  -0.03   0.03     0.04   0.03  -0.01
    15   1     0.46   0.10   0.22    -0.17  -0.03  -0.08     0.15   0.02   0.08
    16   1    -0.01  -0.00  -0.03     0.52  -0.04   0.29     0.52  -0.04   0.30
    17   1    -0.22  -0.06  -0.13    -0.17  -0.05  -0.13     0.20   0.06   0.13
    18   1    -0.01   0.00  -0.03    -0.52  -0.04  -0.29     0.52   0.04   0.30
    19   1    -0.12   0.08   0.20     0.05   0.15  -0.11    -0.00  -0.14   0.05
    20   1     0.11  -0.05  -0.01    -0.04  -0.09  -0.05     0.03   0.09   0.04
    21   1    -0.12  -0.08   0.20    -0.05   0.15   0.11    -0.00   0.14   0.05
    22   1     0.11   0.05  -0.01     0.04  -0.09   0.05     0.03  -0.09   0.04
                     13                     14                     15
                      A                      A                      A
 Frequencies --    757.4406               762.1128               799.5729
 Red. masses --      1.3257                 1.4158                 3.2524
 Frc consts  --      0.4481                 0.4845                 1.2251
 IR Inten    --     81.1258                 0.1017                 0.0094
  Atom  AN      X      Y      Z        X      Y      Z        X      Y      Z
     1   6     0.01  -0.01   0.00    -0.02   0.03   0.02    -0.05  -0.05   0.02
     2   6    -0.10   0.02  -0.03    -0.07   0.05  -0.04     0.00   0.05   0.15
     3   6     0.03   0.01   0.00     0.03  -0.01  -0.00     0.04   0.14  -0.04
     4   6     0.03  -0.01   0.00    -0.03  -0.01   0.00    -0.04   0.14   0.04
     5   6    -0.10  -0.02  -0.03     0.07   0.05   0.04    -0.00   0.05  -0.15
     6   6    -0.01  -0.02   0.01    -0.01  -0.03   0.04    -0.09  -0.07  -0.01
     7   6     0.01   0.01   0.00     0.02   0.03  -0.02     0.05  -0.05  -0.02
     8   6    -0.01   0.02   0.01     0.01  -0.03  -0.04     0.09  -0.07   0.01
     9   6     0.02   0.02  -0.01    -0.05  -0.04   0.02    -0.14  -0.07   0.10
    10   6     0.02  -0.02  -0.01     0.05  -0.04  -0.02     0.14  -0.07  -0.10
    11   1     0.14  -0.01   0.04     0.12   0.03   0.04     0.10  -0.01  -0.10
    12   1     0.51  -0.22   0.29     0.51  -0.16   0.26    -0.21   0.05   0.05
    13   1     0.13   0.04   0.11     0.21   0.05   0.19    -0.15   0.11  -0.15
    14   1     0.13  -0.04   0.11    -0.21   0.05  -0.19     0.15   0.11   0.15
    15   1     0.51   0.22   0.29    -0.51  -0.16  -0.26     0.21   0.05  -0.05
    16   1    -0.18   0.01  -0.08    -0.02  -0.02   0.04     0.25   0.06   0.34
    17   1     0.14   0.01   0.04    -0.11   0.03  -0.04    -0.10  -0.01   0.10
    18   1    -0.18  -0.01  -0.08     0.02  -0.02  -0.04    -0.25   0.06  -0.34
    19   1     0.02  -0.01   0.01    -0.07  -0.08   0.10    -0.18  -0.05   0.19
    20   1     0.04   0.04  -0.01     0.02   0.05   0.05    -0.00  -0.11   0.06
    21   1     0.02   0.01   0.01     0.07  -0.08  -0.10     0.18  -0.05  -0.19
    22   1     0.04  -0.04  -0.01    -0.02   0.05  -0.05     0.00  -0.11  -0.06
                     16                     17                     18
                      A                      A                      A
 Frequencies --    818.9732               828.6691               834.4624
 Red. masses --      4.1849                 5.2660                 3.6077
 Frc consts  --      1.6538                 2.1306                 1.4801
 IR Inten    --      1.3861                34.0790                 2.4926
  Atom  AN      X      Y      Z        X      Y      Z        X      Y      Z
     1   6    -0.07   0.09   0.07    -0.01  -0.23  -0.05    -0.01   0.19   0.06
     2   6     0.04   0.08   0.06    -0.10   0.02   0.25     0.14   0.02  -0.10
     3   6     0.03   0.14  -0.11    -0.05   0.16   0.02     0.02  -0.08  -0.06
     4   6     0.03  -0.14  -0.11    -0.05  -0.16   0.02    -0.02  -0.08   0.06
     5   6     0.04  -0.08   0.06    -0.10  -0.02   0.25    -0.14   0.02   0.10
     6   6    -0.14  -0.12   0.08     0.07  -0.02  -0.10    -0.12  -0.02   0.08
     7   6    -0.07  -0.09   0.07    -0.01   0.23  -0.05     0.01   0.19  -0.06
     8   6    -0.14   0.12   0.08     0.07   0.02  -0.10     0.12  -0.02  -0.08
     9   6     0.11   0.14  -0.10     0.10  -0.08  -0.09     0.00  -0.11  -0.02
    10   6     0.11  -0.14  -0.10     0.10   0.08  -0.09    -0.00  -0.11   0.02
    11   1     0.19   0.12  -0.04     0.00  -0.17  -0.25     0.02   0.18   0.11
    12   1    -0.09  -0.10   0.01    -0.13   0.18   0.22    -0.28   0.02  -0.31
    13   1    -0.13   0.20  -0.02    -0.01   0.06  -0.21     0.00   0.01   0.15
    14   1    -0.13  -0.20  -0.02    -0.01  -0.06  -0.21    -0.00   0.01  -0.15
    15   1    -0.09   0.10   0.01    -0.13  -0.18   0.22     0.28   0.02   0.31
    16   1     0.18  -0.07   0.34    -0.07   0.25   0.01     0.22  -0.19   0.19
    17   1     0.19  -0.12  -0.04     0.00   0.17  -0.25    -0.02   0.18  -0.11
    18   1     0.18   0.07   0.34    -0.07  -0.25   0.01    -0.22  -0.19  -0.19
    19   1     0.11   0.14  -0.11     0.03  -0.00   0.00    -0.07  -0.04   0.10
    20   1     0.08   0.07  -0.13     0.05   0.06  -0.01     0.01   0.02   0.04
    21   1     0.11  -0.14  -0.11     0.03   0.00   0.00     0.07  -0.04  -0.10
    22   1     0.08  -0.07  -0.13     0.05  -0.06  -0.01    -0.01   0.02  -0.04
                     19                     20                     21
                      A                      A                      A
 Frequencies --    889.3348               916.4857               927.4339
 Red. masses --      1.9388                 1.8286                 1.5190
 Frc consts  --      0.9035                 0.9050                 0.7698
 IR Inten    --     14.5697                16.1164                 1.4189
  Atom  AN      X      Y      Z        X      Y      Z        X      Y      Z
     1   6    -0.01   0.04   0.02    -0.00  -0.00   0.01     0.02   0.01   0.00
     2   6    -0.02  -0.02  -0.04     0.00   0.01   0.01    -0.01  -0.04  -0.06
     3   6     0.09   0.11  -0.06     0.08   0.04  -0.04    -0.02   0.03   0.01
     4   6    -0.09   0.11   0.06     0.08  -0.04  -0.04     0.02   0.03  -0.01
     5   6     0.02  -0.02   0.04     0.00  -0.01   0.01     0.01  -0.04   0.06
     6   6     0.00  -0.05   0.05     0.02  -0.09   0.05    -0.01   0.08  -0.04
     7   6     0.01   0.04  -0.02    -0.00   0.00   0.01    -0.02   0.01  -0.00
     8   6    -0.00  -0.05  -0.05     0.02   0.09   0.05     0.01   0.08   0.04
     9   6     0.09  -0.03   0.03    -0.12  -0.05  -0.03    -0.04  -0.06  -0.04
    10   6    -0.09  -0.03  -0.03    -0.12   0.05  -0.03     0.04  -0.06   0.04
    11   1     0.02   0.05  -0.05    -0.01   0.04  -0.13    -0.12  -0.02   0.11
    12   1     0.03  -0.33   0.01    -0.15  -0.08  -0.05     0.16  -0.16   0.03
    13   1    -0.13   0.06  -0.26     0.41  -0.01  -0.05    -0.54   0.04  -0.11
    14   1     0.13   0.06   0.26     0.41   0.01  -0.05     0.54   0.04   0.11
    15   1    -0.03  -0.33  -0.01    -0.15   0.08  -0.05    -0.16  -0.16  -0.03
    16   1    -0.13  -0.09  -0.07    -0.05  -0.17  -0.06     0.02   0.13   0.01
    17   1    -0.02   0.05   0.05    -0.01  -0.04  -0.13     0.12  -0.02  -0.11
    18   1     0.13  -0.09   0.07    -0.05   0.17  -0.06    -0.02   0.13  -0.01
    19   1     0.19   0.06  -0.33    -0.20  -0.15   0.30    -0.06  -0.15   0.11
    20   1    -0.17  -0.22  -0.03     0.20   0.09  -0.01     0.16  -0.05  -0.06
    21   1    -0.19   0.06   0.33    -0.20   0.15   0.30     0.06  -0.15  -0.11
    22   1     0.17  -0.22   0.03     0.20  -0.09  -0.01    -0.16  -0.05   0.06
                     22                     23                     24
                      A                      A                      A
 Frequencies --    949.0912               952.2294               960.0351
 Red. masses --      1.4151                 1.4720                 1.5509
 Frc consts  --      0.7510                 0.7864                 0.8422
 IR Inten    --      1.6411                 4.4379                 9.3908
  Atom  AN      X      Y      Z        X      Y      Z        X      Y      Z
     1   6    -0.09   0.01  -0.04    -0.09   0.00  -0.03    -0.04   0.01  -0.05
     2   6     0.03  -0.00   0.01     0.03   0.00   0.00     0.00  -0.02   0.02
     3   6    -0.02  -0.00   0.02    -0.01  -0.01   0.03     0.01   0.00  -0.03
     4   6     0.02  -0.00  -0.02    -0.01   0.01   0.03     0.01  -0.00  -0.03
     5   6    -0.03  -0.00  -0.01     0.03  -0.00   0.00     0.00   0.02   0.02
     6   6     0.05   0.03   0.02     0.06   0.03   0.02    -0.01  -0.07   0.01
     7   6     0.09   0.01   0.04    -0.09  -0.00  -0.03    -0.04  -0.01  -0.05
     8   6    -0.05   0.03  -0.02     0.06  -0.03   0.02    -0.01   0.07   0.01
     9   6    -0.01  -0.04   0.04    -0.00   0.04  -0.05     0.02  -0.08   0.09
    10   6     0.01  -0.04  -0.04    -0.00  -0.04  -0.05     0.02   0.08   0.09
    11   1     0.46  -0.09   0.35     0.38  -0.10   0.35     0.42  -0.02   0.10
    12   1    -0.09   0.06  -0.06    -0.12   0.11  -0.08    -0.04  -0.01   0.00
    13   1    -0.06   0.04   0.11     0.05   0.04   0.16    -0.03  -0.06  -0.21
    14   1     0.06   0.04  -0.11     0.05  -0.04   0.16    -0.03   0.06  -0.21
    15   1     0.09   0.06   0.06    -0.12  -0.11  -0.08    -0.04   0.01   0.00
    16   1    -0.24   0.15  -0.09    -0.24   0.17  -0.09    -0.08  -0.25  -0.17
    17   1    -0.46  -0.09  -0.35     0.38   0.10   0.35     0.42   0.02   0.10
    18   1     0.24   0.15   0.09    -0.24  -0.17  -0.09    -0.08   0.25  -0.17
    19   1     0.02  -0.03  -0.05    -0.06   0.03   0.11     0.08   0.03  -0.16
    20   1    -0.06  -0.11   0.02     0.11   0.13  -0.03    -0.15  -0.29   0.01
    21   1    -0.02  -0.03   0.05    -0.06  -0.03   0.11     0.08  -0.03  -0.16
    22   1     0.06  -0.11  -0.02     0.11  -0.13  -0.03    -0.15   0.29   0.01
                     25                     26                     27
                      A                      A                      A
 Frequencies --    969.3059               983.1990               995.0250
 Red. masses --      1.6754                 1.8258                 1.4425
 Frc consts  --      0.9274                 1.0399                 0.8415
 IR Inten    --      0.0029                33.9100                 0.3801
  Atom  AN      X      Y      Z        X      Y      Z        X      Y      Z
     1   6    -0.03   0.01  -0.04     0.02   0.01  -0.01    -0.01  -0.02   0.02
     2   6    -0.00  -0.03   0.00     0.00   0.03   0.00     0.01   0.00   0.01
     3   6     0.02   0.03  -0.05    -0.06  -0.10   0.06     0.04   0.04  -0.05
     4   6    -0.02   0.03   0.05    -0.06   0.10   0.06    -0.04   0.04   0.05
     5   6     0.00  -0.03  -0.00     0.00  -0.03   0.00    -0.01   0.00  -0.01
     6   6    -0.03  -0.06  -0.00    -0.02  -0.06   0.05     0.01   0.05  -0.05
     7   6     0.03   0.01   0.04     0.02  -0.01  -0.01     0.01  -0.02  -0.02
     8   6     0.03  -0.06   0.00    -0.02   0.06   0.05    -0.01   0.05   0.05
     9   6    -0.03   0.07  -0.11     0.03  -0.05  -0.09     0.01  -0.05  -0.07
    10   6     0.03   0.07   0.11     0.03   0.05  -0.09    -0.01  -0.05   0.07
    11   1     0.35  -0.02   0.10     0.05   0.05  -0.16    -0.09  -0.05   0.12
    12   1    -0.03  -0.10  -0.01     0.05   0.21   0.02    -0.07  -0.02  -0.03
    13   1    -0.03  -0.04  -0.24    -0.14  -0.06   0.13     0.44   0.03   0.03
    14   1     0.03  -0.04   0.24    -0.14   0.06   0.13    -0.44   0.03  -0.03
    15   1     0.03  -0.10   0.01     0.05  -0.21   0.02     0.07  -0.02   0.03
    16   1    -0.02  -0.26  -0.15    -0.00  -0.10   0.04     0.03   0.13   0.02
    17   1    -0.35  -0.02  -0.10     0.05  -0.05  -0.16     0.09  -0.05  -0.12
    18   1     0.02  -0.26   0.15    -0.00   0.10   0.04    -0.03   0.13  -0.02
    19   1    -0.07  -0.09   0.17     0.11  -0.31  -0.04     0.09  -0.26  -0.03
    20   1     0.22   0.28  -0.05     0.34  -0.23  -0.23     0.28  -0.21  -0.20
    21   1     0.07  -0.09  -0.17     0.11   0.31  -0.04    -0.09  -0.26   0.03
    22   1    -0.22   0.28   0.05     0.34   0.23  -0.23    -0.28  -0.21   0.20
                     28                     29                     30
                      A                      A                      A
 Frequencies --   1027.8701              1080.5685              1086.0059
 Red. masses --      1.4530                 1.6608                 1.2233
 Frc consts  --      0.9045                 1.1426                 0.8501
 IR Inten    --     19.6304                 0.0464                 1.9077
  Atom  AN      X      Y      Z        X      Y      Z        X      Y      Z
     1   6    -0.01  -0.07   0.02     0.03   0.09  -0.03     0.02   0.03  -0.02
     2   6     0.04   0.00  -0.05    -0.05  -0.03   0.08    -0.01  -0.06   0.03
     3   6    -0.05   0.04  -0.01    -0.03  -0.07   0.00    -0.04   0.01   0.02
     4   6    -0.05  -0.04  -0.01     0.03  -0.07  -0.00    -0.04  -0.01   0.02
     5   6     0.04  -0.00  -0.05     0.05  -0.03  -0.08    -0.01   0.06   0.03
     6   6    -0.03  -0.03  -0.01     0.02   0.05  -0.02     0.02   0.02  -0.02
     7   6    -0.01   0.07   0.02    -0.03   0.09   0.03     0.02  -0.03  -0.02
     8   6    -0.03   0.03  -0.01    -0.02   0.05   0.02     0.02  -0.02  -0.02
     9   6     0.04  -0.04   0.03    -0.00  -0.03   0.00     0.01  -0.01  -0.00
    10   6     0.04   0.04   0.03     0.00  -0.03  -0.00     0.01   0.01  -0.00
    11   1    -0.12  -0.12   0.13     0.29   0.21  -0.39     0.16   0.10  -0.21
    12   1     0.02   0.07  -0.07    -0.13  -0.29   0.07    -0.21  -0.49  -0.03
    13   1     0.34   0.17   0.41     0.08  -0.14  -0.12     0.00   0.13   0.31
    14   1     0.34  -0.17   0.41    -0.08  -0.14   0.12     0.00  -0.13   0.31
    15   1     0.02  -0.07  -0.07     0.13  -0.29  -0.07    -0.21   0.49  -0.03
    16   1     0.07  -0.04   0.06    -0.01   0.15   0.03     0.04   0.01  -0.02
    17   1    -0.12   0.12   0.13    -0.29   0.21   0.39     0.16  -0.10  -0.21
    18   1     0.07   0.04   0.06     0.01   0.15  -0.03     0.04  -0.01  -0.02
    19   1    -0.04   0.17  -0.01    -0.02  -0.01   0.04     0.05  -0.08  -0.04
    20   1    -0.01  -0.26  -0.07     0.05  -0.12  -0.05     0.01  -0.00  -0.00
    21   1    -0.04  -0.17  -0.01     0.02  -0.01  -0.04     0.05   0.08  -0.04
    22   1    -0.01   0.26  -0.07    -0.05  -0.12   0.05     0.01   0.00  -0.00
                     31                     32                     33
                      A                      A                      A
 Frequencies --   1087.0656              1096.4995              1115.4271
 Red. masses --      1.1985                 1.2366                 1.3553
 Frc consts  --      0.8345                 0.8760                 0.9935
 IR Inten    --      0.9590                 0.8594                 2.5598
  Atom  AN      X      Y      Z        X      Y      Z        X      Y      Z
     1   6     0.00  -0.02  -0.01     0.03   0.03  -0.02     0.01  -0.05  -0.03
     2   6     0.02  -0.05  -0.02    -0.01   0.00   0.02     0.03   0.01  -0.06
     3   6    -0.03   0.06   0.02    -0.02  -0.07  -0.01     0.01   0.00  -0.00
     4   6     0.03   0.06  -0.02    -0.02   0.07  -0.01    -0.01   0.00   0.00
     5   6    -0.02  -0.05   0.02    -0.01  -0.00   0.02    -0.03   0.01   0.06
     6   6    -0.00  -0.01  -0.01    -0.04   0.02   0.00    -0.05  -0.02   0.05
     7   6    -0.00  -0.02   0.01     0.03  -0.03  -0.02    -0.01  -0.05   0.03
     8   6     0.00  -0.01   0.01    -0.04  -0.02   0.00     0.05  -0.02  -0.05
     9   6    -0.00   0.03  -0.00     0.02   0.01   0.02     0.01   0.02  -0.03
    10   6     0.00   0.03   0.00     0.02  -0.01   0.02    -0.01   0.02   0.03
    11   1     0.03  -0.00  -0.08     0.21   0.11  -0.26     0.19   0.01  -0.27
    12   1    -0.15  -0.40  -0.07    -0.02   0.10   0.02     0.06   0.11  -0.06
    13   1     0.03   0.25   0.47     0.33  -0.15  -0.10    -0.03   0.00  -0.02
    14   1    -0.03   0.25  -0.47     0.33   0.15  -0.10     0.03   0.00   0.02
    15   1     0.15  -0.40   0.07    -0.02  -0.10   0.02    -0.06   0.11   0.06
    16   1     0.04  -0.01   0.02    -0.03   0.25   0.19    -0.14   0.40   0.32
    17   1    -0.03  -0.00   0.08     0.21  -0.11  -0.26    -0.19   0.01   0.27
    18   1    -0.04  -0.01  -0.02    -0.03  -0.25   0.19     0.14   0.40  -0.32
    19   1    -0.01   0.03   0.03    -0.12   0.28   0.09     0.12  -0.16  -0.11
    20   1    -0.00   0.08   0.02    -0.00  -0.07  -0.03     0.02   0.12   0.01
    21   1     0.01   0.03  -0.03    -0.12  -0.28   0.09    -0.12  -0.16   0.11
    22   1     0.00   0.08  -0.02    -0.00   0.07  -0.03    -0.02   0.12  -0.01
                     34                     35                     36
                      A                      A                      A
 Frequencies --   1123.0304              1140.2299              1166.4018
 Red. masses --      1.5496                 1.1651                 1.2256
 Frc consts  --      1.1515                 0.8925                 0.9824
 IR Inten    --      6.2469                 3.6317                 4.0575
  Atom  AN      X      Y      Z        X      Y      Z        X      Y      Z
     1   6     0.00   0.07   0.03    -0.01  -0.02  -0.00    -0.00   0.02   0.01
     2   6    -0.05  -0.00   0.07     0.02   0.00  -0.03    -0.00  -0.01   0.03
     3   6    -0.02  -0.03   0.01    -0.01   0.01  -0.03    -0.06  -0.02  -0.05
     4   6    -0.02   0.03   0.01     0.01   0.01   0.03    -0.06   0.02  -0.05
     5   6    -0.05   0.00   0.07    -0.02   0.00   0.03    -0.00   0.01   0.03
     6   6     0.01   0.03  -0.07     0.03  -0.02   0.05     0.02   0.00   0.01
     7   6     0.00  -0.07   0.03     0.01  -0.02   0.00    -0.00  -0.02   0.01
     8   6     0.01  -0.03  -0.07    -0.03  -0.02  -0.05     0.02  -0.00   0.01
     9   6     0.03   0.03  -0.04     0.02   0.00  -0.02     0.01   0.03   0.01
    10   6     0.03  -0.03  -0.04    -0.02   0.00   0.02     0.01  -0.03   0.01
    11   1    -0.13   0.01   0.25     0.00  -0.00  -0.08    -0.04   0.02   0.01
    12   1    -0.06  -0.03   0.08     0.05   0.03  -0.02     0.00   0.16   0.02
    13   1     0.17  -0.08  -0.04    -0.00   0.03   0.01     0.37  -0.04   0.03
    14   1     0.17   0.08  -0.04     0.00   0.03  -0.01     0.37   0.04   0.03
    15   1    -0.06   0.03   0.08    -0.05   0.03   0.02     0.00  -0.16   0.02
    16   1     0.19  -0.37  -0.27    -0.10   0.09   0.05     0.01  -0.06  -0.05
    17   1    -0.13  -0.01   0.25    -0.00  -0.00   0.08    -0.04  -0.02   0.01
    18   1     0.19   0.37  -0.27     0.10   0.09  -0.05     0.01   0.06  -0.05
    19   1    -0.09   0.22   0.08    -0.26   0.44   0.25     0.25  -0.31  -0.26
    20   1     0.14  -0.09  -0.13     0.18  -0.26  -0.18    -0.14   0.24   0.13
    21   1    -0.09  -0.22   0.08     0.26   0.44  -0.25     0.25   0.31  -0.26
    22   1     0.14   0.09  -0.13    -0.18  -0.26   0.18    -0.14  -0.24   0.13
                     37                     38                     39
                      A                      A                      A
 Frequencies --   1278.4618              1281.5729              1304.6679
 Red. masses --      1.7597                 1.7872                 1.5325
 Frc consts  --      1.6946                 1.7295                 1.5370
 IR Inten    --      5.8373                 2.5589                 1.4706
  Atom  AN      X      Y      Z        X      Y      Z        X      Y      Z
     1   6    -0.01   0.03   0.03     0.01  -0.03  -0.03     0.02   0.04  -0.03
     2   6     0.01  -0.03  -0.03    -0.01   0.04   0.03     0.02   0.04  -0.03
     3   6    -0.03  -0.02   0.03     0.04   0.02  -0.03    -0.06   0.02   0.08
     4   6    -0.03   0.02   0.03    -0.04   0.02   0.03    -0.06  -0.02   0.08
     5   6     0.01   0.03  -0.03     0.01   0.04  -0.03     0.02  -0.04  -0.03
     6   6    -0.01  -0.04   0.02     0.02   0.04  -0.02     0.00  -0.08  -0.01
     7   6    -0.01  -0.03   0.03    -0.01  -0.03   0.03     0.02  -0.04  -0.03
     8   6    -0.01   0.04   0.02    -0.02   0.04   0.02     0.00   0.08  -0.01
     9   6     0.08  -0.12  -0.07     0.08  -0.12  -0.08     0.02  -0.02  -0.01
    10   6     0.08   0.12  -0.07    -0.08  -0.12   0.08     0.02   0.02  -0.01
    11   1     0.04   0.06  -0.07    -0.03  -0.06   0.06    -0.17  -0.07   0.30
    12   1     0.04   0.06  -0.02    -0.05  -0.08   0.03    -0.07  -0.34  -0.04
    13   1    -0.07  -0.00   0.06     0.06   0.01  -0.05     0.16  -0.17  -0.30
    14   1    -0.07   0.00   0.06    -0.06   0.01   0.05     0.16   0.17  -0.30
    15   1     0.04  -0.06  -0.02     0.05  -0.08  -0.03    -0.07   0.34  -0.04
    16   1     0.02  -0.16  -0.04    -0.03   0.15   0.03    -0.07   0.21   0.16
    17   1     0.04  -0.06  -0.07     0.03  -0.06  -0.06    -0.17   0.07   0.30
    18   1     0.02   0.16  -0.04     0.03   0.15  -0.03    -0.07  -0.21   0.16
    19   1    -0.14   0.23   0.12    -0.14   0.23   0.13     0.04  -0.04  -0.03
    20   1    -0.27   0.43   0.26    -0.27   0.43   0.26    -0.01   0.00   0.00
    21   1    -0.14  -0.23   0.12     0.14   0.24  -0.13     0.04   0.04  -0.03
    22   1    -0.27  -0.43   0.26     0.27   0.43  -0.26    -0.01  -0.00   0.00
                     40                     41                     42
                      A                      A                      A
 Frequencies --   1305.4391              1376.7346              1416.5883
 Red. masses --      1.5368                 2.9775                 2.9318
 Frc consts  --      1.5430                 3.3251                 3.4664
 IR Inten    --      0.7595                 8.7280                 2.9688
  Atom  AN      X      Y      Z        X      Y      Z        X      Y      Z
     1   6    -0.02  -0.04   0.03    -0.04  -0.03   0.05    -0.00   0.04   0.01
     2   6    -0.02  -0.03   0.03     0.03   0.19   0.04    -0.02   0.11   0.09
     3   6     0.07  -0.02  -0.08     0.08  -0.14  -0.07     0.05  -0.14  -0.13
     4   6    -0.07  -0.02   0.08    -0.08  -0.14   0.07     0.05   0.14  -0.13
     5   6     0.02  -0.03  -0.03    -0.03   0.19  -0.04    -0.02  -0.11   0.09
     6   6    -0.00   0.08   0.01     0.05  -0.05  -0.07     0.04  -0.10  -0.08
     7   6     0.02  -0.04  -0.03     0.04  -0.03  -0.05    -0.00  -0.04   0.01
     8   6     0.00   0.08  -0.01    -0.05  -0.05   0.07     0.04   0.10  -0.08
     9   6     0.02  -0.02  -0.01     0.03   0.08  -0.02    -0.03  -0.07   0.03
    10   6    -0.02  -0.02   0.01    -0.03   0.08   0.02    -0.03   0.07   0.03
    11   1     0.18   0.06  -0.30    -0.05  -0.04   0.07    -0.14  -0.01   0.22
    12   1     0.07   0.32   0.04    -0.11  -0.38   0.03    -0.07  -0.09   0.11
    13   1    -0.21   0.17   0.29    -0.39  -0.00   0.14    -0.21   0.08   0.36
    14   1     0.21   0.17  -0.29     0.39  -0.00  -0.14    -0.21  -0.08   0.36
    15   1    -0.07   0.32  -0.04     0.11  -0.38  -0.03    -0.07   0.09   0.11
    16   1     0.07  -0.21  -0.17    -0.03   0.16   0.05    -0.06   0.30   0.15
    17   1    -0.18   0.06   0.30     0.05  -0.04  -0.07    -0.14   0.01   0.22
    18   1    -0.07  -0.21   0.17     0.03   0.16  -0.05    -0.06  -0.30   0.15
    19   1     0.04  -0.03  -0.04     0.07  -0.12   0.04    -0.03   0.06  -0.08
    20   1     0.01  -0.01  -0.01     0.00  -0.10  -0.11    -0.01   0.07   0.10
    21   1    -0.04  -0.03   0.04    -0.07  -0.12  -0.04    -0.03  -0.06  -0.08
    22   1    -0.01  -0.01   0.01    -0.00  -0.10   0.11    -0.01  -0.07   0.10
                     43                     44                     45
                      A                      A                      A
 Frequencies --   1431.5830              1432.0950              1464.1410
 Red. masses --      2.7550                 2.1321                 1.1359
 Frc consts  --      3.3267                 2.5763                 1.4347
 IR Inten    --      8.2143                 4.3179                 4.4320
  Atom  AN      X      Y      Z        X      Y      Z        X      Y      Z
     1   6     0.09   0.11  -0.12     0.06   0.10  -0.07    -0.01  -0.02   0.00
     2   6    -0.06  -0.18   0.05    -0.06  -0.09   0.07     0.01   0.03  -0.00
     3   6     0.03   0.06  -0.01     0.04  -0.02  -0.07     0.00  -0.02   0.00
     4   6     0.03  -0.05  -0.01    -0.04  -0.02   0.07    -0.00  -0.02  -0.00
     5   6    -0.06   0.18   0.05     0.06  -0.08  -0.07    -0.01   0.03   0.00
     6   6    -0.03  -0.05   0.03     0.01  -0.09  -0.02     0.00   0.01   0.00
     7   6     0.09  -0.11  -0.12    -0.06   0.10   0.07     0.01  -0.02  -0.00
     8   6    -0.03   0.05   0.03    -0.01  -0.09   0.02    -0.00   0.01  -0.00
     9   6     0.00   0.01  -0.01     0.00   0.02  -0.00    -0.04  -0.04   0.03
    10   6     0.00  -0.01  -0.01    -0.00   0.02   0.00     0.04  -0.04  -0.03
    11   1    -0.16  -0.01   0.30    -0.17   0.00   0.30     0.01  -0.01  -0.03
    12   1     0.03   0.35   0.05     0.01   0.24   0.10    -0.03  -0.08  -0.01
    13   1    -0.05   0.14   0.15    -0.14   0.14   0.25    -0.01  -0.03  -0.02
    14   1    -0.05  -0.15   0.15     0.14   0.14  -0.25     0.01  -0.03   0.02
    15   1     0.03  -0.35   0.05    -0.01   0.24  -0.10     0.03  -0.08   0.01
    16   1    -0.07   0.15   0.17    -0.08   0.26   0.19     0.02  -0.04  -0.03
    17   1    -0.17   0.01   0.30     0.17   0.00  -0.30    -0.01  -0.01   0.03
    18   1    -0.07  -0.16   0.17     0.08   0.26  -0.19    -0.02  -0.04   0.03
    19   1    -0.05  -0.09   0.19     0.04   0.09  -0.13     0.04   0.26  -0.40
    20   1    -0.13  -0.09  -0.03     0.14   0.07  -0.02     0.45   0.22   0.05
    21   1    -0.05   0.09   0.19    -0.04   0.09   0.13    -0.04   0.26   0.40
    22   1    -0.12   0.09  -0.03    -0.14   0.07   0.02    -0.45   0.22  -0.05
                     46                     47                     48
                      A                      A                      A
 Frequencies --   1464.6019              1537.7047              1554.3099
 Red. masses --      1.1466                 4.0139                 4.3367
 Frc consts  --      1.4491                 5.5919                 6.1728
 IR Inten    --     11.2936                 6.5693                 0.6945
  Atom  AN      X      Y      Z        X      Y      Z        X      Y      Z
     1   6     0.01   0.01  -0.01    -0.10   0.09   0.20     0.12  -0.07  -0.23
     2   6    -0.01  -0.04  -0.01    -0.01  -0.11  -0.06    -0.02   0.08   0.06
     3   6     0.00   0.03   0.01    -0.01   0.06   0.05     0.01  -0.04  -0.04
     4   6     0.00  -0.03   0.01    -0.01  -0.06   0.05    -0.01  -0.04   0.04
     5   6    -0.01   0.04  -0.01    -0.01   0.11  -0.06     0.02   0.08  -0.06
     6   6    -0.01  -0.00   0.01     0.10  -0.12  -0.18    -0.10   0.12   0.20
     7   6     0.01  -0.01  -0.01    -0.10  -0.09   0.20    -0.12  -0.07   0.23
     8   6    -0.01   0.00   0.01     0.10   0.12  -0.18     0.10   0.12  -0.20
     9   6    -0.04  -0.04   0.03    -0.02   0.01   0.02    -0.01   0.00   0.02
    10   6    -0.04   0.04   0.03    -0.02  -0.01   0.02     0.01   0.00  -0.02
    11   1    -0.00   0.00   0.02     0.15   0.24  -0.20    -0.16  -0.24   0.22
    12   1     0.01   0.06  -0.01     0.13   0.28  -0.03    -0.10  -0.23   0.06
    13   1    -0.01   0.03  -0.01    -0.01   0.02  -0.07    -0.01  -0.01   0.05
    14   1    -0.01  -0.03  -0.01    -0.01  -0.02  -0.07     0.01  -0.01  -0.05
    15   1     0.01  -0.06  -0.01     0.13  -0.28  -0.03     0.10  -0.23  -0.06
    16   1    -0.01   0.01   0.02    -0.00   0.29   0.02    -0.02  -0.28  -0.01
    17   1    -0.00  -0.00   0.02     0.15  -0.24  -0.20     0.16  -0.24  -0.22
    18   1    -0.01  -0.01   0.02    -0.00  -0.29   0.02     0.02  -0.28   0.01
    19   1     0.03   0.27  -0.39     0.04  -0.11  -0.00     0.04  -0.12   0.02
    20   1     0.46   0.22   0.04     0.01  -0.19  -0.08    -0.02  -0.20  -0.07
    21   1     0.03  -0.27  -0.40     0.04   0.11  -0.00    -0.04  -0.12  -0.02
    22   1     0.46  -0.22   0.04     0.01   0.19  -0.08     0.02  -0.20   0.07
                     49                     50                     51
                      A                      A                      A
 Frequencies --   2980.8205              2980.9372              3086.5394
 Red. masses --      1.0721                 1.0724                 1.0881
 Frc consts  --      5.6123                 5.6146                 6.1077
 IR Inten    --    101.6229                15.0960                16.6650
  Atom  AN      X      Y      Z        X      Y      Z        X      Y      Z
     1   6     0.00   0.00  -0.00    -0.00  -0.00   0.00    -0.00   0.00  -0.00
     2   6    -0.00  -0.00   0.00     0.00   0.00  -0.00     0.00  -0.00  -0.00
     3   6    -0.00  -0.00  -0.00     0.00   0.00   0.00    -0.00   0.00  -0.00
     4   6    -0.00   0.00  -0.00    -0.00   0.00  -0.00     0.00   0.00   0.00
     5   6    -0.00   0.00   0.00    -0.00   0.00   0.00    -0.00  -0.00   0.00
     6   6    -0.00   0.00  -0.00     0.00  -0.00   0.00    -0.00  -0.00   0.00
     7   6     0.00  -0.00  -0.00     0.00  -0.00  -0.00     0.00   0.00   0.00
     8   6    -0.00  -0.00  -0.00    -0.00  -0.00  -0.00     0.00  -0.00  -0.00
     9   6    -0.05  -0.02  -0.01    -0.05  -0.02  -0.01     0.01  -0.02   0.05
    10   6    -0.05   0.02  -0.01     0.05  -0.02   0.01    -0.01  -0.02  -0.05
    11   1    -0.00  -0.00  -0.00     0.00   0.00   0.00     0.00  -0.00   0.00
    12   1    -0.00   0.00   0.00    -0.00  -0.00   0.00    -0.00   0.00   0.01
    13   1     0.00   0.02  -0.00    -0.00  -0.02   0.01    -0.00  -0.03   0.01
    14   1     0.00  -0.02  -0.00     0.00  -0.02  -0.01     0.00  -0.03  -0.01
    15   1    -0.00  -0.00   0.00     0.00  -0.00  -0.00     0.00   0.00  -0.01
    16   1    -0.00  -0.00   0.01     0.00   0.00  -0.01     0.01   0.01  -0.02
    17   1    -0.00   0.00  -0.00    -0.00   0.00  -0.00    -0.00  -0.00  -0.00
    18   1    -0.00   0.00   0.01    -0.00   0.00   0.01    -0.01   0.01   0.02
    19   1     0.59   0.23   0.24     0.62   0.24   0.25    -0.07  -0.04  -0.02
    20   1    -0.03   0.04  -0.09    -0.03   0.03  -0.09    -0.12   0.30  -0.62
    21   1     0.62  -0.24   0.25    -0.59   0.23  -0.24     0.07  -0.04   0.02
    22   1    -0.03  -0.04  -0.10     0.03   0.03   0.09     0.12   0.30   0.62
                     52                     53                     54
                      A                      A                      A
 Frequencies --   3088.0637              3157.6863              3164.6030
 Red. masses --      1.0889                 1.0912                 1.0901
 Frc consts  --      6.1179                 6.4103                 6.4321
 IR Inten    --     38.6147                 4.7488                31.3662
  Atom  AN      X      Y      Z        X      Y      Z        X      Y      Z
     1   6    -0.00   0.00  -0.00     0.00   0.00   0.00     0.00   0.00   0.00
     2   6    -0.00  -0.00   0.00     0.00   0.00  -0.01     0.00   0.00  -0.01
     3   6    -0.00   0.00  -0.00    -0.01  -0.06   0.02    -0.01  -0.06   0.02
     4   6    -0.00  -0.00  -0.00    -0.01   0.06   0.02     0.01  -0.06  -0.02
     5   6    -0.00   0.00   0.00     0.00  -0.00  -0.01    -0.00   0.00   0.01
     6   6    -0.00  -0.00   0.00    -0.00  -0.00   0.00    -0.00  -0.00   0.00
     7   6    -0.00  -0.00  -0.00     0.00  -0.00   0.00    -0.00   0.00  -0.00
     8   6    -0.00   0.00   0.00    -0.00   0.00   0.00     0.00  -0.00  -0.00
     9   6    -0.02   0.02  -0.05     0.00   0.00  -0.00    -0.00  -0.00   0.00
    10   6    -0.02  -0.02  -0.05     0.00  -0.00  -0.00     0.00  -0.00  -0.00
    11   1     0.00   0.00   0.00    -0.00  -0.01  -0.00    -0.00  -0.01  -0.00
    12   1     0.00  -0.00  -0.00    -0.04   0.00   0.08    -0.04   0.00   0.08
    13   1     0.00  -0.01   0.00     0.08   0.64  -0.27     0.08   0.64  -0.27
    14   1     0.00   0.01   0.00     0.08  -0.64  -0.27    -0.08   0.64   0.27
    15   1     0.00   0.00  -0.00    -0.04  -0.00   0.08     0.04   0.00  -0.08
    16   1     0.01   0.01  -0.02     0.01   0.01  -0.02     0.01   0.01  -0.01
    17   1     0.00  -0.00   0.00    -0.00   0.01  -0.00     0.00  -0.01   0.00
    18   1     0.01  -0.01  -0.02     0.01  -0.01  -0.02    -0.01   0.01   0.01
    19   1     0.08   0.04   0.02    -0.02  -0.01  -0.00     0.01   0.00   0.00
    20   1     0.12  -0.30   0.62     0.00  -0.00   0.01    -0.00   0.01  -0.03
    21   1     0.08  -0.04   0.02    -0.02   0.01  -0.00    -0.01   0.00  -0.00
    22   1     0.12   0.30   0.62     0.00   0.00   0.01     0.00   0.01   0.03
                     55                     56                     57
                      A                      A                      A
 Frequencies --   3186.9219              3188.5329              3213.9891
 Red. masses --      1.0884                 1.0885                 1.0974
 Frc consts  --      6.5131                 6.5201                 6.6789
 IR Inten    --     10.5665                16.2254                17.6589
  Atom  AN      X      Y      Z        X      Y      Z        X      Y      Z
     1   6    -0.00   0.05   0.02     0.00  -0.05  -0.02    -0.00   0.02   0.01
     2   6     0.00  -0.00  -0.01    -0.00   0.00   0.01     0.01  -0.00  -0.01
     3   6     0.00   0.00  -0.00    -0.00  -0.00   0.00    -0.00   0.00   0.00
     4   6     0.00  -0.00  -0.00     0.00  -0.00  -0.00    -0.00  -0.00   0.00
     5   6     0.00   0.00  -0.01     0.00   0.00  -0.01     0.01   0.00  -0.01
     6   6    -0.01  -0.01   0.01     0.01   0.01  -0.02     0.03   0.03  -0.04
     7   6    -0.00  -0.05   0.02    -0.00  -0.05   0.02    -0.00  -0.02   0.01
     8   6    -0.01   0.01   0.01    -0.01   0.01   0.02     0.03  -0.03  -0.04
     9   6     0.00  -0.00   0.00     0.00  -0.00   0.00     0.00   0.00  -0.00
    10   6     0.00   0.00   0.00    -0.00  -0.00  -0.00     0.00  -0.00  -0.00
    11   1     0.01  -0.61  -0.18    -0.01   0.61   0.18     0.01  -0.22  -0.07
    12   1    -0.05   0.01   0.10     0.05  -0.01  -0.10    -0.08   0.02   0.17
    13   1    -0.00  -0.03   0.01     0.00   0.03  -0.01    -0.00  -0.01   0.00
    14   1    -0.00   0.03   0.01    -0.00   0.03   0.01    -0.00   0.01   0.00
    15   1    -0.05  -0.01   0.10    -0.05  -0.01   0.10    -0.08  -0.02   0.17
    16   1     0.13   0.15  -0.19    -0.14  -0.16   0.20    -0.30  -0.34   0.43
    17   1     0.01   0.61  -0.18     0.01   0.60  -0.18     0.01   0.23  -0.07
    18   1     0.14  -0.15  -0.19     0.14  -0.16  -0.20    -0.31   0.35   0.44
    19   1     0.00   0.00   0.00    -0.00  -0.00  -0.00    -0.00  -0.00  -0.00
    20   1    -0.00   0.00  -0.01    -0.00   0.01  -0.01     0.00  -0.01   0.02
    21   1     0.00  -0.00   0.00     0.00  -0.00   0.00    -0.00   0.00  -0.00
    22   1    -0.00  -0.00  -0.01     0.00   0.01   0.01     0.00   0.01   0.02
                     58                     59                     60
                      A                      A                      A
 Frequencies --   3214.1144              3230.5664              3231.0927
 Red. masses --      1.0977                 1.0982                 1.0987
[...]
 84510,0.00035279,0.00069508,-0.00354595,0.04982461,-0.00119091,0.00553
 471,-0.00362391,-0.12649195,0.02225348,-0.28538288,-0.00683395,-0.0039
 6794,-0.00609019,0.00020945,-0.00015169,-0.00027462,-0.00072849,0.0006
 4669,-0.00022009,-0.00211679,-0.00029778,-0.00083681,0.00012180,-0.000
 23953,0.00087033,0.00122728,-0.00071861,-0.00117355,-0.00051832,-0.000
 39033,-0.00029424,-0.00091922,0.00116111,0.00005645,0.00067536,-0.0004
 7836,-0.00029680,0.13617987,-0.02468892,0.29712331,0.00499723,0.000437
 63,0.00123408,0.00021452,-0.00512697,0.00288941,-0.03712223,-0.0186048
 7,-0.02778409,-0.00893913,0.01193748,0.01289707,-0.00190021,-0.0046862
 1,-0.00082875,-0.00274589,0.00185677,-0.00463685,-0.00096317,0.0012011
 5,-0.00177123,-0.00063792,0.00124344,0.00156629,0.00192137,0.00061397,
 0.00076246,-0.00101118,-0.01888222,-0.00391174,0.00029966,-0.00019620,
 0.00007009,-0.00196780,0.00020887,0.00139874,0.04461804,0.00037548,-0.
 00385272,0.00205881,-0.00317645,-0.01468972,-0.01398017,-0.02760036,-0
 .28604257,-0.10049536,-0.00083025,-0.00030336,0.00051967,-0.00013096,0
 .00026876,-0.00015794,0.00074927,-0.00026183,0.00087924,-0.00008566,0.
 00056889,0.00003913,-0.00023713,-0.00018121,0.00045646,0.00004666,-0.0
 0009012,-0.00022121,0.00164702,0.00178636,0.00186028,-0.00111501,-0.00
 051471,-0.00036115,-0.00008062,0.00073187,0.00055839,0.03113503,0.3012
 9336,-0.00277147,0.00307246,-0.00337126,0.00389790,0.02108030,0.010633
 86,-0.02720158,-0.10873382,-0.08789731,0.00471096,-0.00789539,-0.00741
 516,0.00117967,0.00208661,0.00049540,-0.00320123,-0.00146321,-0.002354
 59,0.00014783,-0.00034537,0.00021165,0.00019710,0.00032892,-0.00058769
 ,-0.00107185,-0.00019823,0.00016560,0.00463576,-0.01594138,-0.00454609
 ,0.00072524,0.00066104,0.00051884,0.00123552,-0.00140878,-0.00035183,0
 .01942925,0.10890092,0.09240151,-0.00096329,-0.00120146,-0.00177133,-0
 .00190010,0.00468618,-0.00082924,-0.00893935,-0.01193626,0.01289857,-0
 .03712306,0.01860734,-0.02778835,0.00021465,0.00512719,0.00288885,-0.0
 0063804,-0.00124344,0.00156662,0.00499707,-0.00043732,0.00123388,-0.00
 274596,-0.00185708,-0.00463654,-0.00101154,0.01888184,-0.00391377,0.00
 192138,-0.00061390,0.00076254,0.00024901,-0.00009042,-0.00022933,0.000
 17288,-0.00006516,-0.00000145,0.00119302,-0.00013760,-0.00036773,0.044
 61982,0.00008565,0.00056891,-0.00003921,0.00013104,0.00026864,0.000157
 95,0.00083059,-0.00030280,-0.00052013,0.02760263,-0.28602078,0.1005148
 0,0.00317728,-0.01469032,0.01398269,0.00023716,-0.00018131,-0.00045649
 ,-0.00037569,-0.00385324,-0.00205876,-0.00074966,-0.00026178,-0.000879
 51,-0.00164660,0.00178808,-0.00186095,-0.00004669,-0.00009011,0.000221
 26,-0.00007030,0.00005400,0.00004378,0.00004641,-0.00000072,-0.0000558
 5,0.00013759,0.00078948,0.00005044,-0.03113838,0.30127036,0.00014790,0
 .00034540,0.00021173,0.00117961,-0.00208673,0.00049565,0.00471125,0.00
 789495,-0.00741635,-0.02720695,0.10875331,-0.08791775,0.00389795,-0.02
 107769,0.01063443,0.00019714,-0.00032894,-0.00058774,-0.00277150,-0.00
 307245,-0.00337060,-0.00320110,0.00146282,-0.00235458,0.00463550,0.015
 94074,-0.00454758,-0.00107195,0.00019827,0.00016560,-0.00013118,-0.000
 00802,0.00008446,-0.00014034,0.00005199,0.00008064,-0.00036776,-0.0000
 5057,-0.00021642,0.01943476,-0.10892147,0.09242318,-0.00090279,-0.0008
 7652,-0.00253056,0.00163816,0.00222286,0.00081336,-0.00128457,-0.00096
 596,0.00182347,0.00286560,0.00091365,0.00020723,-0.08568263,-0.0028205
 8,-0.12730502,-0.00302251,-0.00085340,0.00389672,-0.00453822,-0.003882
 82,-0.01063030,0.00121276,0.00312267,-0.00067750,0.00291556,-0.0000209
 0,-0.00245568,0.00023334,-0.00042859,-0.00000239,-0.00001067,-0.000000
 08,-0.00006465,-0.00026315,0.00009821,0.00004021,0.00017289,-0.0000464
 2,-0.00014034,-0.00196781,0.00008070,0.00123553,0.08951503,0.00002806,
 -0.00011511,-0.00045530,0.00059928,-0.00014142,0.00048493,-0.00032677,
 -0.00028847,-0.00030660,-0.01254945,0.00522276,-0.01985222,-0.00103568
 ,-0.05728446,-0.02412192,-0.00063051,-0.00018695,0.00076548,0.00681894
 ,0.00832317,0.01954005,0.00252266,-0.00378093,0.00279794,0.00156539,-0
 .00369196,-0.00352725,0.00037836,0.00004440,-0.00039549,0.00002955,0.0
 0000466,0.00000884,-0.00009821,-0.00001609,0.00001388,0.00006519,-0.00
 000073,-0.00005200,-0.00020878,0.00073197,0.00140871,0.00356006,0.0498
 2902,0.00012183,0.00023964,0.00087049,-0.00072854,-0.00064681,-0.00022
 015,0.00020961,0.00015175,-0.00027472,-0.00683272,0.00396684,-0.006088
 28,-0.12649370,-0.02227859,-0.28538279,0.00122752,0.00071864,-0.001173
 92,-0.00119104,-0.00553588,-0.00362490,-0.00211695,0.00029793,-0.00083
 720,-0.00091934,-0.00116066,0.00005699,-0.00051843,0.00039028,-0.00029
 422,0.00001419,-0.00001616,0.00001251,0.00004023,-0.00001388,0.0000676
 5,-0.00000147,0.00005586,0.00008064,0.00139876,-0.00055847,-0.00035193
 ,0.13618046,0.02471585,0.29712246,-0.00087245,-0.00703451,-0.00423286,
 0.00316524,0.00032957,-0.00490132,-0.00091016,-0.00015439,-0.00096216,
 0.00026132,0.00009251,0.00024727,-0.00012093,0.00011803,-0.00040117,-0
 .10377011,-0.07869553,-0.11169600,0.00044395,-0.00038767,0.00032384,-0
 .00005141,-0.00000685,-0.00041132,0.00018366,0.00038400,0.00016718,0.0
 0200717,0.00295581,0.00401053,-0.00294772,0.00069080,0.00201465,0.0003
 8294,-0.00107113,-0.00036955,0.00088124,-0.00012364,-0.00099452,-0.000
 03375,-0.00007271,-0.00005419,0.00001288,-0.00014102,0.00017964,0.1016
 2552,0.00688145,0.01029895,0.00885837,0.00055164,-0.00068708,0.0028486
 1,0.00125524,-0.00571255,0.00021790,0.00041792,-0.00010558,-0.00024499
 ,0.00013247,-0.00000165,-0.00012688,-0.07803284,-0.14096100,-0.1077124
 1,-0.00008664,0.00016326,0.00000695,-0.00014836,-0.00004959,0.00017780
 ,-0.00001310,0.00011311,-0.00003899,-0.01393759,-0.00461596,-0.0177083
 2,-0.00009609,0.00025862,-0.00112613,0.00015229,0.00083095,0.00027220,
 -0.00143796,0.00011051,-0.00097035,0.00004374,0.00004829,-0.00006174,-
 0.00009384,-0.00001722,0.00011991,0.08384611,0.13979966,-0.01021312,-0
 .01761966,-0.00836309,-0.00362152,0.00240346,-0.00194194,0.00060764,0.
 00205193,0.00028394,0.00006319,-0.00002600,-0.00020498,-0.00002402,0.0
 0008115,0.00048223,-0.10801422,-0.10373691,-0.18327122,-0.00021648,0.0
 0009814,-0.00020229,0.00006409,0.00012150,0.00023757,-0.00008001,-0.00
 021885,-0.00006398,0.00284186,0.00308845,0.00247017,0.00226724,0.00015
 066,-0.00051644,-0.00079631,-0.00072247,-0.00017872,-0.00031949,0.0000
 4905,0.00097711,-0.00001278,0.00004319,0.00006497,-0.00008353,0.000020
 42,0.00003898,0.11764670,0.11509157,0.18972994,0.00014272,-0.00005392,
 0.00021833,-0.00004911,-0.00011655,0.00014863,0.00008621,-0.00080839,-
 0.00045373,0.00227546,0.00292694,-0.00411798,0.00208681,0.01269678,0.0
 0593839,0.00038257,-0.00004223,-0.00041996,-0.04229578,-0.00539281,-0.
 00931440,0.00325368,-0.01300551,-0.00260729,0.00549992,0.00017348,-0.0
 0652243,0.00001928,0.00002498,0.00001404,-0.00013292,-0.00005089,0.000
 11368,-0.00001067,-0.00002955,0.00001419,0.00024899,0.00007029,-0.0001
 3118,0.00029964,0.00111509,0.00072514,-0.00130693,-0.00084504,0.000675
 35,-0.00009248,0.00001390,0.00001615,0.03251557,-0.00016738,-0.0001843
 2,-0.00016499,-0.00006068,0.00024173,-0.00035716,-0.00035850,-0.000100
 64,0.00037751,0.00128605,-0.00269614,0.00137659,-0.00379939,-0.0110637
 9,-0.00965792,-0.00012240,0.00026482,0.00041179,-0.00300380,-0.3161636
 1,-0.07746789,0.00173821,-0.00374654,0.00159332,0.00129008,0.00027120,
 -0.00144875,0.00005905,-0.00007258,-0.00003928,0.00005089,0.00016489,-
 0.00008393,0.00000006,0.00000466,0.00001617,0.00009040,0.00005400,0.00
 000801,0.00019621,-0.00051471,-0.00066092,-0.00002191,0.00035274,0.000
 47831,0.00012324,0.00000485,-0.00001951,0.00368440,0.33329362,0.000034
 30,-0.00007925,0.00012217,0.00007363,-0.00019930,0.00004915,0.00043751
 ,0.00057833,-0.00021047,-0.00392372,0.00279554,-0.00027071,0.00188082,
 0.01364135,0.00913327,-0.00001561,0.00008120,0.00020396,-0.01019687,-0
 .07542218,-0.07767933,0.00070395,-0.02480553,0.00182454,-0.00470595,-0
 .00160450,-0.00175934,-0.00002561,0.00000735,-0.00006596,0.00011368,0.
 00008391,-0.00006016,-0.00006464,-0.00000884,0.00001250,-0.00022933,-0
 .00004378,0.00008446,0.00007006,0.00036124,0.00051886,0.00111271,-0.00
 069512,-0.00029677,-0.00001200,-0.00002155,-0.00000765,0.01283518,0.08
 577226,0.06913103,0.00044390,0.00038766,0.00032376,-0.00012086,-0.0001
 1812,-0.00040103,0.00026137,-0.00009247,0.00024727,-0.00090993,0.00015
 441,-0.00096208,0.00316521,-0.00033020,-0.00490145,-0.00005139,0.00000
 682,-0.00041124,-0.00087282,0.00703444,-0.00423384,-0.10377875,0.07868
 743,-0.11170724,0.00200687,-0.00295520,0.00401017,0.00018370,-0.000384
 01,0.00016718,-0.00009247,-0.00012323,-0.00001198,0.00001286,0.0001410
 2,0.00017961,-0.00003374,0.00007269,-0.00005419,0.00088113,0.00012354,
 -0.00099452,0.00038285,0.00107115,-0.00036966,0.00001595,0.00001431,-0
 .00000588,-0.00294766,-0.00069069,0.00201478,0.10163466,0.00008663,0.0
 0016325,-0.00000697,-0.00013244,-0.00000167,0.00012693,-0.00041787,-0.
 00010554,0.00024496,-0.00125506,-0.00571276,-0.00021732,-0.00055198,-0
 .00068767,-0.00284884,0.00014839,-0.00004960,-0.00017779,-0.00688290,0
 .01029980,-0.00886023,0.07802538,-0.14093622,0.10770323,0.01393824,-0.
 00461421,0.01770892,0.00001309,0.00011312,0.00003898,-0.00001390,0.000
 00486,0.00002155,0.00009381,-0.00001723,-0.00011988,-0.00004374,0.0000
 4830,0.00006174,0.00143797,0.00011064,0.00097038,-0.00015237,0.0008310
 3,-0.00027231,-0.00001431,0.00002036,0.00000405,0.00009624,0.00025870,
 0.00112610,-0.08383779,0.13977272,-0.00021647,-0.00009817,-0.00020226,
 -0.00002406,-0.00008104,0.00048216,0.00006319,0.00002598,-0.00020502,0
 .00060776,-0.00205137,0.00028412,-0.00362155,-0.00240353,-0.00194116,0
 .00006407,-0.00012148,0.00023756,-0.01021294,0.01761730,-0.00836359,-0
 .10802572,0.10372779,-0.18328657,0.00284066,-0.00308767,0.00246871,-0.
 00008003,0.00021887,-0.00006399,0.00001615,0.00001951,-0.00000765,-0.0
 0008352,-0.00002042,0.00003897,-0.00001278,-0.00004318,0.00006497,-0.0
 0031962,-0.00004896,0.00097704,-0.00079634,0.00072228,-0.00017871,-0.0
 0000588,-0.00000405,0.00000562,0.00226732,-0.00015067,-0.00051666,0.11
 765926,-0.11508138,0.18974670,-0.00064080,-0.00002554,-0.00057052,-0.0
 0024371,0.00197533,-0.00115182,-0.00288540,-0.00159460,0.00045492,-0.0
 1956052,-0.00840844,0.00543915,0.00003032,0.00209437,-0.00018300,-0.00
 062991,-0.00016493,0.00008059,0.00055341,0.00058088,0.00103785,0.00294
 954,-0.00112483,-0.00099380,-0.22572193,-0.07181980,0.07682151,-0.0002
 9236,-0.00060466,0.00040875,-0.00001172,-0.00009925,-0.00001037,0.0002
 1794,-0.00002881,-0.00005508,0.00037360,0.00002677,-0.00019755,0.00076
 419,0.00058584,-0.00010210,0.00018997,-0.00005858,-0.00034669,0.000042
 04,-0.00003167,-0.00007090,-0.00020519,-0.00015641,0.00003556,-0.00028
 141,-0.00058500,-0.00009770,0.25048939,-0.00030058,0.00013651,-0.00039
 426,-0.00034810,-0.00004107,0.00026799,0.00096364,0.00018577,0.0010087
 0,0.00748748,0.00241392,-0.00181955,-0.00020324,-0.00037294,0.00120628
 ,-0.00001862,-0.00036203,-0.00014381,0.00164582,-0.00263361,0.00179588
 ,-0.02767317,-0.01686467,0.00656803,-0.07684918,-0.06601008,0.02864065
 ,0.00041346,0.00003460,-0.00014024,0.00004122,0.00000736,-0.00000589,0
 .00011540,-0.00004716,0.00008063,-0.00016776,0.00015094,0.00018861,-0.
 00024703,0.00015952,-0.00026195,-0.00011887,-0.00001090,-0.00000776,-0
 .00010530,0.00003440,0.00006207,0.00154581,0.00012516,-0.00115439,0.00
 094469,-0.00010562,-0.00004793,0.08118658,0.07799987,-0.00064741,-0.00
 074909,-0.00143341,0.00105132,0.00179848,-0.00027852,-0.00138632,-0.00
 061421,0.00053054,-0.01649654,-0.00766365,0.00374958,0.00094233,-0.001
 96019,0.00093004,-0.00090822,-0.00033350,0.00144548,-0.00314344,0.0013
 7122,-0.00287676,0.00212246,0.00398340,0.00035463,0.07594636,0.0256225
 0,-0.07221187,0.00028855,-0.00021107,-0.00017573,0.00004401,0.00000275
 ,-0.00005701,-0.00031304,0.00006974,0.00041852,-0.00000791,0.00015495,
 0.00008342,0.00071680,0.00033321,0.00078403,0.00044958,0.00009909,-0.0
 0044568,-0.00009345,0.00000483,0.00007405,0.00031775,0.00001012,-0.000
 24971,-0.00021834,0.00039835,0.00022866,-0.08316579,-0.03163130,0.0794
 7334,0.00021752,-0.00003507,0.00033850,-0.00073116,-0.00065944,-0.0001
 3012,-0.00031812,-0.00067253,-0.00217216,0.00206498,-0.01208848,-0.017
 10267,-0.00340139,0.00226884,-0.00407645,0.00031946,0.00029043,-0.0001
 3597,0.00180606,-0.00006948,0.00074762,-0.00237038,-0.00259458,0.00092
 465,-0.05063072,0.02408977,0.04096602,-0.00027286,0.00024135,0.0002114
 9,0.00000825,0.00004146,0.00003785,-0.00025453,-0.00037333,0.00005336,
 -0.00022241,0.00033323,-0.00013004,-0.00014106,0.00030654,0.00020443,-
 0.00012314,-0.00114674,-0.00052730,0.00011384,0.00000247,-0.00003616,0
 .00023336,-0.00019524,-0.00016593,-0.00005535,0.00001842,0.00008527,-0
 .00503987,0.01149844,0.02456278,0.05878968,-0.00034651,-0.00020952,-0.
 00052813,-0.00000914,0.00011973,-0.00032531,0.00002261,0.00050368,0.00
 070946,-0.00274109,0.00335995,0.00688495,0.00247765,-0.00053962,0.0008
 4339,-0.00012161,-0.00027503,0.00031249,0.00066722,-0.00605043,0.00000
 499,0.00366793,-0.00943622,-0.02895474,0.02151911,-0.09421008,-0.09989
 158,0.00016728,-0.00006420,-0.00006592,0.00002081,0.00000325,-0.000011
 89,-0.00031080,-0.00019241,0.00043660,-0.00006763,0.00004915,0.0001400
 0,-0.00003894,-0.00007416,-0.00016748,0.00008873,0.00043416,-0.0001273
 9,-0.00006285,0.00001110,0.00006600,-0.00194103,-0.00050465,-0.0004306
 0,-0.00027454,0.00056224,0.00103614,-0.00159132,0.00499900,0.00947676,
 -0.02117427,0.10141299,0.00005205,-0.00027899,-0.00038998,0.00067855,0
 .00052379,0.00097636,0.00194455,-0.00005695,-0.00081269,0.00470573,-0.
 00833010,-0.01347928,-0.00204335,-0.00040003,-0.00252365,0.00044430,-0
 .00017801,0.00063415,0.00006490,0.00164726,-0.00158642,-0.00093426,0.0
 0191126,0.00535679,0.03764431,-0.10070686,-0.25376161,0.00022092,0.000
 55138,-0.00019888,0.00005880,0.00002040,-0.00004431,-0.00009698,0.0001
 1192,0.00046463,-0.00060041,0.00044258,0.00053583,-0.00049240,0.000288
 79,-0.00029697,-0.00066291,-0.00098999,0.00003646,-0.00019207,0.000052
 12,0.00012964,0.00018002,0.00003010,0.00013811,-0.00004504,-0.00076352
 ,0.00002738,0.00286420,-0.00436129,-0.01020635,-0.04370468,0.11053278,
 0.27496939,0.00055356,-0.00058066,0.00103804,0.00003037,-0.00209444,-0
 .00018278,-0.01956062,0.00840823,0.00543816,-0.00288549,0.00159466,0.0
 0045482,-0.00024375,-0.00197546,-0.00115166,0.00294851,0.00112527,-0.0
 0099363,-0.00064081,0.00002544,-0.00057047,-0.00062986,0.00016491,0.00
 008052,-0.00029238,0.00060470,0.00040874,-0.22572630,0.07182162,0.0768
 1498,-0.00020515,0.00015640,0.00003550,0.00018998,0.00005854,-0.000346
 71,0.00076417,-0.00058583,-0.00010206,0.00037362,-0.00002678,-0.000197
 57,0.00021795,0.00002881,-0.00005509,-0.00028139,0.00058498,-0.0000977
 7,-0.00001172,0.00009925,-0.00001037,0.00004205,0.00003167,-0.00007092
 ,-0.00006670,0.00013867,-0.00004803,-0.00003089,0.00001724,-0.00014919
 ,0.25049448,-0.00164591,-0.00263385,-0.00179590,0.00020333,-0.00037288
 ,-0.00120615,-0.00748972,0.00241479,0.00181976,-0.00096383,0.00018568,
 -0.00100873,0.00034824,-0.00004133,-0.00026800,0.02767377,-0.01686474,
 -0.00656623,0.00030056,0.00013663,0.00039410,0.00001856,-0.00036202,0.
 00014397,-0.00041346,0.00003464,0.00014025,0.07685085,-0.06601016,-0.0
 2863807,-0.00154577,0.00012525,0.00115425,0.00011891,-0.00001091,0.000
 00771,0.00024712,0.00015948,0.00026200,0.00016776,0.00015092,-0.000188
 63,-0.00011544,-0.00004718,-0.00008058,-0.00094470,-0.00010568,0.00004
 793,-0.00004121,0.00000736,0.00000588,0.00010528,0.00003440,-0.0000620
 6,-0.00013868,0.00014139,-0.00013338,-0.00005066,0.00005964,-0.0000162
 0,-0.08118848,0.07800038,-0.00314329,-0.00137132,-0.00287655,0.0009421
 1,0.00196050,0.00092999,-0.01649614,0.00766320,0.00374862,-0.00138626,
 0.00061425,0.00053054,0.00105131,-0.00179852,-0.00027833,0.00212013,-0
 .00398196,0.00035557,-0.00064741,0.00074893,-0.00143347,-0.00090814,0.
 00033359,0.00144538,0.00028855,0.00021106,-0.00017575,0.07593931,-0.02
 561992,-0.07220624,0.00031789,-0.00001016,-0.00024980,0.00044960,-0.00
 009915,-0.00044568,0.00071679,-0.00033314,0.00078401,-0.00000792,-0.00
 015497,0.00008346,-0.00031304,-0.00006971,0.00041854,-0.00021824,-0.00
 039832,0.00022869,0.00004401,-0.00000276,-0.00005701,-0.00009346,-0.00
 000484,0.00007406,-0.00004802,0.00013336,-0.00010002,-0.00001344,0.000
 02902,-0.00003724,-0.08315838,0.03162818,0.07946689,0.00180611,0.00006
 979,0.00074763,-0.00340119,-0.00226932,-0.00407618,0.00206465,0.012086
 93,-0.01710346,-0.00031818,0.00067232,-0.00217221,-0.00073115,0.000659
 43,-0.00013020,-0.00237043,0.00259488,0.00092347,0.00021749,0.00003509
 ,0.00033847,0.00031945,-0.00029041,-0.00013592,-0.00027285,-0.00024134
 ,0.00021151,-0.05063006,-0.02408521,0.04096631,0.00023331,0.00019524,-
 0.00016597,-0.00012312,0.00114666,-0.00052744,-0.00014102,-0.00030652,
 0.00020450,-0.00022245,-0.00033326,-0.00013002,-0.00025459,0.00037334,
 0.00005335,-0.00005537,-0.00001844,0.00008531,0.00000826,-0.00004146,0
 .00003785,0.00011384,-0.00000247,-0.00003616,-0.00003089,0.00005065,-0
 .00001344,0.00003873,0.00003116,0.00006295,-0.00503963,-0.01149654,0.0
 2456404,0.05878910,-0.00066697,-0.00605068,-0.00000449,-0.00247791,-0.
 00053977,-0.00084375,0.00274158,0.00336056,-0.00688704,-0.00002246,0.0
 0050358,-0.00070962,0.00000913,0.00011965,0.00032544,-0.00366789,-0.00
 943355,0.02895599,0.00034656,-0.00020942,0.00052808,0.00012164,-0.0002
 7505,-0.00031241,-0.00016725,-0.00006424,0.00006592,-0.02151481,-0.094
 19357,0.09987799,0.00194100,-0.00050455,0.00043077,-0.00008881,0.00043
 430,0.00012733,0.00003891,-0.00007416,0.00016749,0.00006755,0.00004911
 ,-0.00013996,0.00031080,-0.00019248,-0.00043653,0.00027454,0.00056223,
 -0.00103618,-0.00002080,0.00000324,0.00001189,0.00006282,0.00001110,-0
 .00006599,-0.00001726,0.00005964,-0.00002902,-0.00003115,0.00004143,-0
 .00003046,0.00159127,0.00499819,-0.00947732,0.02116948,0.10139444,0.00
 006503,-0.00164682,-0.00158625,-0.00204324,0.00039977,-0.00252368,0.00
 470549,0.00832887,-0.01347954,0.00194450,0.00005691,-0.00081261,0.0006
 7857,-0.00052374,0.00097638,-0.00093386,-0.00191001,0.00535427,0.00005
 203,0.00027897,-0.00039007,0.00044427,0.00017809,0.00063413,0.00022094
 ,-0.00055139,-0.00019884,0.03764423,0.10069330,-0.25377922,0.00017982,
 -0.00003004,0.00013810,-0.00066290,0.00098996,0.00003633,-0.00049236,-
 0.00028884,-0.00029692,-0.00060040,-0.00044256,0.00053589,-0.00009699,
 -0.00011186,0.00046458,-0.00004509,0.00076346,0.00002741,0.00005880,-0
 .00002041,-0.00004431,-0.00019207,-0.00005212,0.00012966,-0.00014919,0
 .00001619,-0.00003723,0.00006295,0.00003047,0.00006865,0.00286387,0.00
 435991,-0.01020565,-0.04370439,-0.11051812,0.27498892\\0.00008677,0.00
 018983,0.00023581,0.00045998,-0.00025368,-0.00024020,0.00206235,-0.000
 14999,-0.00163746,-0.00206181,-0.00015067,0.00163652,-0.00046138,-0.00
 025368,0.00023908,0.00043421,0.00009708,-0.00015956,-0.00008745,0.0001
 9000,-0.00023627,-0.00043342,0.00009784,0.00016029,-0.00020268,0.00006
 606,0.00015256,0.00020286,0.00006555,-0.00015213,-0.00003482,0.0000162
 2,0.00003254,-0.00001521,0.00000589,0.00001181,0.00002020,0.00001265,-
 0.00001779,-0.00002043,0.00001275,0.00001808,0.00001590,0.00000612,-0.
 00001083,0.00002405,0.00000412,0.00000467,0.00003471,0.00001577,-0.000
 03269,-0.00002368,0.00000385,-0.00000457,-0.00004617,0.00000912,-0.000
 07294,0.00004864,0.00000286,0.00002570,0.00004596,0.00000931,0.0000732
 1,-0.00004859,0.00000298,-0.00002582\\\@


 WAR ES EIN GOTT DER DIESE ZEICHEN SCHRIEB?
          - LUDWIG BOLTZMANN, QUOTING GOETHE, ABOUT MAXWELL'S EQUATIONS.
 Job cpu time:       0 days  1 hours  3 minutes 54.7 seconds.
 Elapsed time:       0 days  0 hours  0 minutes 40.9 seconds.
 File lengths (MBytes):  RWF=    181 Int=      0 D2E=      0 Chk=     10 Scr=      1
 Normal termination of Gaussian 16 at Mon Jul 28 00:08:21 2025.
