 Entering Gaussian System, Link 0=g16
 Initial command:
 /home/hongchang/data/software/Gaussian/g16/l1.exe "/home/hongchang/data/software/Gaussian/g16/scratch/Gau-1339277.inp" -scrdir="/home/hongchang/data/software/Gaussian/g16/scratch/"
 Entering Link 1 = /home/hongchang/data/software/Gaussian/g16/l1.exe PID=   1339279.
  
 Copyright (c) 1988,1990,1992,1993,1995,1998,2003,2009,2016,
            Gaussian, Inc.  All Rights Reserved.
  
 This is part of the Gaussian(R) 16 program.  It is based on
 the Gaussian(R) 09 system (copyright 2009, Gaussian, Inc.),
 the Gaussian(R) 03 system (copyright 2003, Gaussian, Inc.),
 the Gaussian(R) 98 system (copyright 1998, Gaussian, Inc.),
 the Gaussian(R) 94 system (copyright 1995, Gaussian, Inc.),
 the Gaussian 92(TM) system (copyright 1992, Gaussian, Inc.),
 the Gaussian 90(TM) system (copyright 1990, Gaussian, Inc.),
 the Gaussian 88(TM) system (copyright 1988, Gaussian, Inc.),
 the Gaussian 86(TM) system (copyright 1986, Carnegie Mellon
 University), and the Gaussian 82(TM) system (copyright 1983,
 Carnegie Mellon University). Gaussian is a federally registered
 trademark of Gaussian, Inc.
  
 This software contains proprietary and confidential information,
 including trade secrets, belonging to Gaussian, Inc.
  
 This software is provided under written license and may be
 used, copied, transmitted, or stored only in accord with that
 written license.
  
 The following legend is applicable only to US Government
 contracts under FAR:
  
                    RESTRICTED RIGHTS LEGEND
  
 Use, reproduction and disclosure by the US Government is
 subject to restrictions as set forth in subparagraphs (a)
 and (c) of the Commercial Computer Software - Restricted
 Rights clause in FAR 52.227-19.
  
 Gaussian, Inc.
 340 Quinnipiac St., Bldg. 40, Wallingford CT 06492
  
  
 ---------------------------------------------------------------
 Warning -- This program may not be used in any manner that
 competes with the business of Gaussian, Inc. or will provide
 assistance to any competitor of Gaussian, Inc.  The licensee
 of this program is prohibited from giving any competitor of
 Gaussian, Inc. access to this program.  By using this program,
 the user acknowledges that Gaussian, Inc. is engaged in the
 business of creating and licensing software in the field of
 computational chemistry and represents and warrants to the
 licensee that it is not a competitor of Gaussian, Inc. and that
 it will not use this program in any manner prohibited above.
 ---------------------------------------------------------------
  

 Cite this work as:
 Gaussian 16, Revision A.03,
 M. J. Frisch, G. W. Trucks, H. B. Schlegel, G. E. Scuseria, 
 M. A. Robb, J. R. Cheeseman, G. Scalmani, V. Barone, 
 G. A. Petersson, H. Nakatsuji, X. Li, M. Caricato, A. V. Marenich, 
 J. Bloino, B. G. Janesko, R. Gomperts, B. Mennucci, H. P. Hratchian, 
 J. V. Ortiz, A. F. Izmaylov, J. L. Sonnenberg, D. Williams-Young, 
 F. Ding, F. Lipparini, F. Egidi, J. Goings, B. Peng, A. Petrone, 
 T. Henderson, D. Ranasinghe, V. G. Zakrzewski, J. Gao, N. Rega, 
 G. Zheng, W. Liang, M. Hada, M. Ehara, K. Toyota, R. Fukuda, 
 J. Hasegawa, M. Ishida, T. Nakajima, Y. Honda, O. Kitao, H. Nakai, 
 T. Vreven, K. Throssell, J. A. Montgomery, Jr., J. E. Peralta, 
 F. Ogliaro, M. J. Bearpark, J. J. Heyd, E. N. Brothers, K. N. Kudin, 
 V. N. Staroverov, T. A. Keith, R. Kobayashi, J. Normand, 
 K. Raghavachari, A. P. Rendell, J. C. Burant, S. S. Iyengar, 
 J. Tomasi, M. Cossi, J. M. Millam, M. Klene, C. Adamo, R. Cammi, 
 J. W. Ochterski, R. L. Martin, K. Morokuma, O. Farkas, 
 J. B. Foresman, and D. J. Fox, Gaussian, Inc., Wallingford CT, 2016.
 
 ******************************************
 Gaussian 16:  ES64L-G16RevA.03 25-Dec-2016
                28-Jul-2025 
 ******************************************
 %nprocshared=96
 Will use up to   96 processors via shared memory.
 %mem=600GB
 %chk=01_02_path1_10.chk
 -----------------------------------------------------------
 # freq b3lyp/6-311g(d,p) em=gd3bj scrf(solvent=Cis-Decalin)
 -----------------------------------------------------------
 1/10=4,30=1,38=1/1,3;
 2/12=2,17=6,18=5,40=1/2;
 3/5=4,6=6,7=101,11=2,25=1,30=1,70=2201,71=2,72=99,74=-5,124=41,140=1/1,2,3;
 4//1;
 5/5=2,38=5,53=99,98=1/2;
 8/6=4,10=90,11=11/1;
 11/6=1,8=1,9=11,15=111,16=1/1,2,10;
 10/6=1/2;
 6/7=2,8=2,9=2,10=2,28=1/1;
 7/8=1,10=1,25=1/1,2,3,16;
 1/10=4,30=1/3;
 99//99;
 --------------
 01_02_path1_10
 --------------
 Symbolic Z-matrix:
 Charge =  0 Multiplicity = 1
 C                    -1.36593  -1.17055   0.64908 
 C                    -0.75419  -0.08666   1.37608 
 C                    -0.91134   1.07275   0.65553 
 C                     0.91131   1.0727   -0.65563 
 C                     0.75418  -0.08679  -1.37606 
 C                    -1.94326  -0.69598  -0.48274 
 C                     1.36595  -1.1706   -0.64897 
 C                     1.94329  -0.6959    0.4828 
 C                     1.89498   0.80799   0.46137 
 C                    -1.89499   0.80792  -0.46146 
 H                    -1.31424  -2.21013   0.94536 
 H                    -0.24387  -0.18793   2.32247 
 H                    -0.70191   2.06659   1.02621 
 H                     0.70187   2.0665   -1.02641 
 H                     0.24385  -0.18817  -2.32244 
 H                    -2.46329  -1.27584  -1.23237 
 H                     1.31428  -2.21021  -0.94514 
 H                     2.46335  -1.27568   1.23247 
 H                     2.87755   1.18908   0.14029 
 H                     1.67007   1.28235   1.41706 
 H                    -2.87758   1.189    -0.14042 
 H                    -1.67008   1.28219  -1.41719 
 

 GradGradGradGradGradGradGradGradGradGradGradGradGradGradGradGradGradGrad
 Berny optimization.
 Initialization pass.
 Trust Radius=3.00D-01 FncErr=1.00D-07 GrdErr=1.00D-07 EigMax=2.50D+02 EigMin=1.00D-04
 Number of steps in this run=      2 maximum allowed number of steps=      2.
 GradGradGradGradGradGradGradGradGradGradGradGradGradGradGradGradGradGrad

                          Input orientation:                          
 ---------------------------------------------------------------------
 Center     Atomic      Atomic             Coordinates (Angstroms)
 Number     Number       Type             X           Y           Z
 ---------------------------------------------------------------------
      1          6           0       -1.365927   -1.170548    0.649084
      2          6           0       -0.754192   -0.086657    1.376083
      3          6           0       -0.911337    1.072754    0.655532
      4          6           0        0.911309    1.072696   -0.655633
      5          6           0        0.754177   -0.086791   -1.376064
      6          6           0       -1.943256   -0.695976   -0.482742
      7          6           0        1.365949   -1.170597   -0.648966
      8          6           0        1.943288   -0.695899    0.482800
      9          6           0        1.894977    0.807993    0.461370
     10          6           0       -1.894987    0.807919   -0.461455
     11          1           0       -1.314243   -2.210126    0.945360
     12          1           0       -0.243870   -0.187931    2.322469
     13          1           0       -0.701913    2.066595    1.026211
     14          1           0        0.701866    2.066495   -1.026412
     15          1           0        0.243852   -0.188170   -2.322438
     16          1           0       -2.463290   -1.275840   -1.232366
     17          1           0        1.314284   -2.210206   -0.945139
     18          1           0        2.463346   -1.275677    1.232474
     19          1           0        2.877553    1.189075    0.140287
     20          1           0        1.670068    1.282348    1.417064
     21          1           0       -2.877576    1.189004   -0.140416
     22          1           0       -1.670083    1.282190   -1.417192
 ---------------------------------------------------------------------
                    Distance matrix (angstroms):
                    1          2          3          4          5
     1  C    0.000000
     2  C    1.441377   0.000000
     3  C    2.288907   1.374090   0.000000
     4  C    3.452569   2.871561   2.245260   0.000000
     5  C    3.125795   3.138390   2.871561   1.374089   0.000000
     6  C    1.356303   2.289186   2.342847   3.362534   2.906076
     7  C    3.024579   3.125819   3.452589   2.288909   1.441378
     8  C    3.347215   2.906119   3.362567   2.342848   2.289186
     9  C    3.818816   2.941971   2.825455   1.511743   2.340561
    10  C    2.329707   2.340561   1.511742   2.825440   2.941953
    11  H    1.082208   2.237923   3.320186   4.277053   3.765093
    12  H    2.241599   1.079968   2.193973   3.434052   3.832163
    13  H    3.325994   2.182118   1.081194   2.533559   3.539519
    14  H    4.190645   3.539513   2.533551   1.081194   2.182117
    15  H    3.519431   3.832161   3.434050   2.193974   1.079969
    16  H    2.180630   3.337541   3.389485   4.151646   3.433159
    17  H    3.287243   3.765120   4.277074   3.320188   2.237925
    18  H    3.874884   3.433212   4.151683   3.389487   3.337541
    19  H    4.881989   4.042803   3.825532   2.124417   2.904459
    20  H    3.977909   2.784401   2.699539   2.217147   3.242678
    21  H    2.911336   2.904452   2.124416   3.825523   4.042785
    22  H    3.221480   3.242682   2.217148   2.699527   2.784392
                    6          7          8          9         10
     6  C    0.000000
     7  C    3.347198   0.000000
     8  C    4.004684   1.356301   0.000000
     9  C    4.229102   2.329707   1.504820   0.000000
    10  C    1.504820   3.818820   4.229118   3.900696   0.000000
    11  H    2.174347   3.287237   3.621927   4.431973   3.380087
    12  H    3.318920   3.519457   2.902770   3.005033   3.386464
    13  H    3.383736   4.190666   3.863128   2.940572   2.284916
    14  H    3.863094   3.325994   3.383736   2.284915   2.940550
    15  H    2.902721   2.241601   3.318920   3.386464   3.005010
    16  H    1.081024   3.874855   4.764038   5.119140   2.293322
    17  H    3.621915   1.082208   2.174346   3.380088   4.431980
    18  H    4.764049   2.180628   1.081024   2.293322   5.119163
    19  H    5.213615   2.911343   2.131500   1.101714   4.825403
    20  H    4.536424   3.221476   2.204758   1.090389   4.057528
    21  H    2.131500   4.881992   5.213635   4.825410   1.101714
    22  H    2.204759   3.977917   4.536436   4.057525   1.090389
                   11         12         13         14         15
    11  H    0.000000
    12  H    2.670468   0.000000
    13  H    4.321091   2.640639   0.000000
    14  H    5.122701   4.146306   2.486736   0.000000
    15  H    4.146621   4.670443   4.146310   2.640639   0.000000
    16  H    2.633570   4.329691   4.401760   4.607801   3.114466
    17  H    3.237768   4.146650   5.122724   4.321092   2.670469
    18  H    3.902026   3.114530   4.607840   4.401760   4.329691
    19  H    5.456543   4.049857   3.790446   2.620051   3.859819
    20  H    4.618007   2.577719   2.528656   2.742786   4.263847
    21  H    3.895767   3.859813   2.620056   3.790433   4.049832
    22  H    4.231376   4.263848   2.742784   2.528633   2.577708
                   16         17         18         19         20
    16  H    0.000000
    17  H    3.902000   0.000000
    18  H    5.508827   2.633569   0.000000
    19  H    6.040247   3.895776   2.727534   0.000000
    20  H    5.536105   4.231373   2.684559   1.759795   0.000000
    21  H    2.727534   5.456546   6.040275   5.761970   4.807861
    22  H    2.684559   4.618020   5.536122   4.807848   4.380595
                   21         22
    21  H    0.000000
    22  H    1.759795   0.000000
 Stoichiometry    C10H12
 Framework group  C1[X(C10H12)]
 Deg. of freedom    60
 Full point group                 C1      NOp   1
 Largest Abelian subgroup         C1      NOp   1
 Largest concise Abelian subgroup C1      NOp   1
                         Standard orientation:                         
 ---------------------------------------------------------------------
 Center     Atomic      Atomic             Coordinates (Angstroms)
 Number     Number       Type             X           Y           Z
 ---------------------------------------------------------------------
      1          6           0        1.377632    1.182469    0.623824
      2          6           0        0.779363    0.098604    1.361982
      3          6           0        0.923232   -1.060831    0.638702
      4          6           0       -0.923211   -1.060810   -0.638733
      5          6           0       -0.779347    0.098653   -1.361969
      6          6           0        1.934054    0.707859   -0.518409
      7          6           0       -1.377646    1.182485   -0.623782
      8          6           0       -1.934082    0.707825    0.518422
      9          6           0       -1.886177   -0.796067    0.496157
     10          6           0        1.886181   -0.796036   -0.496189
     11          1           0        1.331407    2.222057    0.920967
     12          1           0        0.286527    0.199910    2.317587
     13          1           0        0.720655   -2.054659    1.013201
     14          1           0       -0.720623   -2.054622   -1.013267
     15          1           0       -0.286507    0.200000   -2.317568
     16          1           0        2.440221    1.287696   -1.277485
     17          1           0       -1.331432    2.222084   -0.920889
     18          1           0       -2.440268    1.287629    1.277512
     19          1           0       -2.874491   -1.177157    0.193205
     20          1           0       -1.643737   -1.270392    1.447570
     21          1           0        2.874505   -1.177113   -0.193256
     22          1           0        1.643743   -1.270337   -1.447614
 ---------------------------------------------------------------------
 Rotational constants (GHZ):           2.3625648           1.2864984           1.2301967
 Standard basis: 6-311G(d,p) (5D, 7F)
 There are   262 symmetry adapted cartesian basis functions of A   symmetry.
 There are   252 symmetry adapted basis functions of A   symmetry.
   252 basis functions,   416 primitive gaussians,   262 cartesian basis functions
    36 alpha electrons       36 beta electrons
       nuclear repulsion energy       517.5355366271 Hartrees.
 NAtoms=   22 NActive=   22 NUniq=   22 SFac= 1.00D+00 NAtFMM=   60 NAOKFM=F Big=F
 Integral buffers will be    131072 words long.
 Raffenetti 2 integral format.
 Two-electron integral symmetry is turned on.
 Nuclear repulsion after empirical dispersion term =      517.4889995322 Hartrees.
 Force inversion solution in PCM.
 ------------------------------------------------------------------------------
 Polarizable Continuum Model (PCM)
 =================================
 Model                : PCM.
 Atomic radii         : UFF (Universal Force Field).
 Polarization charges : Total charges.
 Charge compensation  : None.
 Solution method      : Matrix inversion.
 Cavity type          : Scaled VdW (van der Waals Surface) (Alpha=1.100).
 Cavity algorithm     : GePol (No added spheres)
                        Default sphere list used, NSphG=   22.
                        Lebedev-Laikov grids with approx.  5.0 points / Ang**2.
                        Smoothing algorithm: York/Karplus (Gamma=1.0000).
                        Polarization charges: spherical gaussians, with
                                              point-specific exponents (IZeta= 3).
                        Self-potential: point-specific (ISelfS= 7).
                        Self-field    : sphere-specific E.n sum rule (ISelfD= 2).
 1st derivatives      : Analytical E(r).r(x)/FMM algorithm (CHGder, D1EAlg=3).
                        Cavity 1st derivative terms included.
 2nd derivatives      : Analytical E(r).r(xy)/FMM algorithm (CHGder, D2EAlg=3).
                        Cavity 2nd derivative terms included.
 Solvent              : Cis-Decalin, Eps=   2.213900 Eps(inf)=   2.193361
 ------------------------------------------------------------------------------
 One-electron integrals computed using PRISM.
 NBasis=   252 RedAO= T EigKep=  5.50D-04  NBF=   252
 NBsUse=   252 1.00D-06 EigRej= -1.00D+00 NBFU=   252
 ExpMin= 1.03D-01 ExpMax= 4.56D+03 ExpMxC= 6.82D+02 IAcc=3 IRadAn=         5 AccDes= 0.00D+00
 Harris functional with IExCor=  402 and IRadAn=       5 diagonalized for initial guess.
 HarFok:  IExCor=  402 AccDes= 0.00D+00 IRadAn=         5 IDoV= 1 UseB2=F ITyADJ=14
 ICtDFT=  3500011 ScaDFX=  1.000000  1.000000  1.000000  1.000000
 FoFCou: FMM=F IPFlag=           0 FMFlag=      100000 FMFlg1=           0
         NFxFlg=           0 DoJE=T BraDBF=F KetDBF=T FulRan=T
         wScrn=  0.000000 ICntrl=       500 IOpCl=  0 I1Cent=   200000004 NGrid=           0
         NMat0=    1 NMatS0=      1 NMatT0=    0 NMatD0=    1 NMtDS0=    0 NMtDT0=    0
 Petite list used in FoFCou.
 Requested convergence on RMS density matrix=1.00D-08 within 128 cycles.
 Requested convergence on MAX density matrix=1.00D-06.
 Requested convergence on             energy=1.00D-06.
 No special actions if energy rises.
 Inv3:  Mode=1 IEnd=     7300800.
 Iteration    1 A*A^-1 deviation from unit magnitude is 3.77D-15 for   1555.
 Iteration    1 A*A^-1 deviation from orthogonality  is 2.84D-15 for   1538   1019.
 Iteration    1 A^-1*A deviation from unit magnitude is 3.77D-15 for   1555.
 Iteration    1 A^-1*A deviation from orthogonality  is 2.04D-15 for   1351    879.
 Error on total polarization charges =  0.00636
 SCF Done:  E(RB3LYP) =  -388.325850053     A.U. after   12 cycles
            NFock= 12  Conv=0.44D-08     -V/T= 2.0045
 DoSCS=F DFT=T ScalE2(SS,OS)=  1.000000  1.000000
 Range of M.O.s used for correlation:     1   252
 NBasis=   252 NAE=    36 NBE=    36 NFC=     0 NFV=     0
 NROrb=    252 NOA=    36 NOB=    36 NVA=   216 NVB=   216
 Symmetrizing basis deriv contribution to polar:
 IMax=3 JMax=2 DiffMx= 0.00D+00
 G2DrvN: will do    23 centers at a time, making    1 passes.
 Calling FoFCou, ICntrl=  3107 FMM=F I1Cent=   0 AccDes= 0.00D+00.
 NEqPCM:  Using equilibrium solvation (IEInf=0, Eps=   2.2139, EpsInf=   2.1934)
 G2PCM: DoFxE=T DoFxN=T DoGrad=T DoDP/DQ/DG/TGxP=FFFF NFrqRd=   0 IEInf=0 SqF1=F DoCFld=F IF1Alg=4.
 End of G2Drv F.D. properties file   721 does not exist.
 End of G2Drv F.D. properties file   722 does not exist.
 End of G2Drv F.D. properties file   788 does not exist.
          IDoAtm=1111111111111111111111
 NEqPCM:  Using equilibrium solvation (IEInf=0, Eps=   2.2139, EpsInf=   2.1934)
          Differentiating once with respect to electric field.
                with respect to dipole field.
          Differentiating once with respect to nuclear coordinates.
 Keep R1 ints in memory in canonical form, NReq=612588626.
          There are    69 degrees of freedom in the 1st order CPHF.  IDoFFX=6 NUNeed=     3.
     66 vectors produced by pass  0 Test12= 1.13D-14 1.45D-09 XBig12= 1.71D+02 1.05D+01.
 AX will form    66 AO Fock derivatives at one time.
     66 vectors produced by pass  1 Test12= 1.13D-14 1.45D-09 XBig12= 2.37D+01 8.06D-01.
     66 vectors produced by pass  2 Test12= 1.13D-14 1.45D-09 XBig12= 2.47D-01 9.23D-02.
     66 vectors produced by pass  3 Test12= 1.13D-14 1.45D-09 XBig12= 7.01D-04 5.29D-03.
     66 vectors produced by pass  4 Test12= 1.13D-14 1.45D-09 XBig12= 1.41D-06 2.06D-04.
     45 vectors produced by pass  5 Test12= 1.13D-14 1.45D-09 XBig12= 1.57D-09 4.48D-06.
      6 vectors produced by pass  6 Test12= 1.13D-14 1.45D-09 XBig12= 1.47D-12 1.45D-07.
      3 vectors produced by pass  7 Test12= 1.13D-14 1.45D-09 XBig12= 1.48D-15 4.15D-09.
 InvSVY:  IOpt=1 It=  1 EMax= 7.11D-15
 Solved reduced A of dimension   384 with    69 vectors.
 Isotropic polarizability for W=    0.000000      125.45 Bohr**3.
 End of Minotr F.D. properties file   721 does not exist.
 End of Minotr F.D. properties file   722 does not exist.
 End of Minotr F.D. properties file   788 does not exist.

 **********************************************************************

            Population analysis using the SCF density.

 **********************************************************************

 Orbital symmetries:
       Occupied  (A) (A) (A) (A) (A) (A) (A) (A) (A) (A) (A) (A)
                 (A) (A) (A) (A) (A) (A) (A) (A) (A) (A) (A) (A)
                 (A) (A) (A) (A) (A) (A) (A) (A) (A) (A) (A) (A)
       Virtual   (A) (A) (A) (A) (A) (A) (A) (A) (A) (A) (A) (A)
                 (A) (A) (A) (A) (A) (A) (A) (A) (A) (A) (A) (A)
                 (A) (A) (A) (A) (A) (A) (A) (A) (A) (A) (A) (A)
                 (A) (A) (A) (A) (A) (A) (A) (A) (A) (A) (A) (A)
                 (A) (A) (A) (A) (A) (A) (A) (A) (A) (A) (A) (A)
                 (A) (A) (A) (A) (A) (A) (A) (A) (A) (A) (A) (A)
                 (A) (A) (A) (A) (A) (A) (A) (A) (A) (A) (A) (A)
                 (A) (A) (A) (A) (A) (A) (A) (A) (A) (A) (A) (A)
                 (A) (A) (A) (A) (A) (A) (A) (A) (A) (A) (A) (A)
                 (A) (A) (A) (A) (A) (A) (A) (A) (A) (A) (A) (A)
                 (A) (A) (A) (A) (A) (A) (A) (A) (A) (A) (A) (A)
                 (A) (A) (A) (A) (A) (A) (A) (A) (A) (A) (A) (A)
                 (A) (A) (A) (A) (A) (A) (A) (A) (A) (A) (A) (A)
                 (A) (A) (A) (A) (A) (A) (A) (A) (A) (A) (A) (A)
                 (A) (A) (A) (A) (A) (A) (A) (A) (A) (A) (A) (A)
                 (A) (A) (A) (A) (A) (A) (A) (A) (A) (A) (A) (A)
                 (A) (A) (A) (A) (A) (A) (A) (A) (A) (A) (A) (A)
                 (A) (A) (A) (A) (A) (A) (A) (A) (A) (A) (A) (A)
 The electronic state is 1-A.
 Alpha  occ. eigenvalues --  -10.17022 -10.17020 -10.16907 -10.16907 -10.16163
 Alpha  occ. eigenvalues --  -10.16163 -10.16025 -10.16024 -10.15746 -10.15745
 Alpha  occ. eigenvalues --   -0.86477  -0.84255  -0.71247  -0.70583  -0.69250
 Alpha  occ. eigenvalues --   -0.68874  -0.55253  -0.55049  -0.53199  -0.51729
 Alpha  occ. eigenvalues --   -0.51699  -0.50361  -0.44769  -0.42129  -0.39556
 Alpha  occ. eigenvalues --   -0.38584  -0.37456  -0.37139  -0.36114  -0.36086
 Alpha  occ. eigenvalues --   -0.35620  -0.34854  -0.31565  -0.26505  -0.24154
 Alpha  occ. eigenvalues --   -0.19382
 Alpha virt. eigenvalues --   -0.02568   0.00686   0.03920   0.04801   0.07327
 Alpha virt. eigenvalues --    0.07783   0.07923   0.09572   0.09750   0.10516
 Alpha virt. eigenvalues --    0.11182   0.11336   0.12686   0.15154   0.15349
 Alpha virt. eigenvalues --    0.16769   0.18784   0.19695   0.21770   0.23359
 Alpha virt. eigenvalues --    0.27327   0.27432   0.30713   0.31558   0.31906
 Alpha virt. eigenvalues --    0.32453   0.35584   0.38421   0.38546   0.39472
 Alpha virt. eigenvalues --    0.40070   0.40545   0.40919   0.42510   0.43467
 Alpha virt. eigenvalues --    0.43933   0.44806   0.46468   0.46537   0.48995
 Alpha virt. eigenvalues --    0.49885   0.52256   0.55019   0.55695   0.56600
 Alpha virt. eigenvalues --    0.56633   0.58870   0.59206   0.59776   0.60148
 Alpha virt. eigenvalues --    0.60223   0.62023   0.62071   0.63550   0.64033
 Alpha virt. eigenvalues --    0.64353   0.65447   0.65939   0.68706   0.70006
 Alpha virt. eigenvalues --    0.70467   0.71703   0.72615   0.73560   0.77047
 Alpha virt. eigenvalues --    0.80041   0.80409   0.84913   0.85137   0.88019
 Alpha virt. eigenvalues --    0.88545   0.92051   0.93681   0.97985   0.99087
 Alpha virt. eigenvalues --    1.03714   1.03754   1.05361   1.06182   1.12277
 Alpha virt. eigenvalues --    1.12909   1.15502   1.17255   1.21098   1.21552
 Alpha virt. eigenvalues --    1.23793   1.28556   1.34173   1.38069   1.38886
 Alpha virt. eigenvalues --    1.47066   1.47476   1.47931   1.49875   1.51462
 Alpha virt. eigenvalues --    1.52888   1.52966   1.55221   1.56403   1.56716
 Alpha virt. eigenvalues --    1.58730   1.59348   1.60845   1.61028   1.61091
 Alpha virt. eigenvalues --    1.63920   1.63981   1.65828   1.67445   1.69671
 Alpha virt. eigenvalues --    1.70461   1.72991   1.74479   1.77371   1.78358
 Alpha virt. eigenvalues --    1.79665   1.81717   1.82219   1.82442   1.84612
 Alpha virt. eigenvalues --    1.84829   1.86380   1.89186   1.89435   1.89602
 Alpha virt. eigenvalues --    1.91637   1.92010   1.95139   1.96924   1.97328
 Alpha virt. eigenvalues --    1.98497   1.99510   2.02787   2.04296   2.10049
 Alpha virt. eigenvalues --    2.11271   2.13250   2.15623   2.18457   2.19663
 Alpha virt. eigenvalues --    2.24335   2.24936   2.27023   2.32102   2.33157
 Alpha virt. eigenvalues --    2.34261   2.36648   2.36889   2.38961   2.41381
 Alpha virt. eigenvalues --    2.44276   2.45984   2.50477   2.53145   2.53649
 Alpha virt. eigenvalues --    2.54273   2.58334   2.59119   2.59883   2.60871
 Alpha virt. eigenvalues --    2.62690   2.67348   2.69880   2.70734   2.71353
 Alpha virt. eigenvalues --    2.71440   2.73983   2.74352   2.78539   2.78777
 Alpha virt. eigenvalues --    2.81105   2.83280   2.86170   2.92879   2.93930
 Alpha virt. eigenvalues --    2.95337   2.95974   2.99147   2.99415   3.04478
 Alpha virt. eigenvalues --    3.05595   3.10865   3.11763   3.18767   3.19159
 Alpha virt. eigenvalues --    3.20136   3.33887   3.34044   3.42339   3.42582
 Alpha virt. eigenvalues --    3.48256   3.50304   3.55265   3.59725   3.77532
 Alpha virt. eigenvalues --    3.77756   4.02710   4.03962   4.05737   4.08293
 Alpha virt. eigenvalues --    4.09103   4.10650   4.16393   4.18002   4.53582
 Alpha virt. eigenvalues --    4.55657  23.62306  23.73939  23.86745  23.89732
 Alpha virt. eigenvalues --   23.90247  23.94658  24.17578  24.19724  24.22392
 Alpha virt. eigenvalues --   24.22615
          Condensed to atoms (all electrons):
               1          2          3          4          5          6
     1  C    4.878585   0.442120  -0.077704  -0.007582   0.001952   0.583329
     2  C    0.442120   4.982929   0.548545  -0.039407  -0.035258  -0.085005
     3  C   -0.077704   0.548545   5.189507   0.037498  -0.039407  -0.098920
     4  C   -0.007582  -0.039407   0.037498   5.189506   0.548547  -0.010851
     5  C    0.001952  -0.035258  -0.039407   0.548547   4.982933   0.020781
     6  C    0.583329  -0.085005  -0.098920  -0.010851   0.020781   5.065470
     7  C   -0.012936   0.001952  -0.007581  -0.077704   0.442118  -0.008767
     8  C   -0.008766   0.020780  -0.010849  -0.098920  -0.085004  -0.002287
     9  C    0.000570  -0.011718  -0.023678   0.379161  -0.099966   0.000801
    10  C   -0.094068  -0.099965   0.379160  -0.023679  -0.011718   0.377903
    11  H    0.420636  -0.044499   0.006466  -0.000139  -0.000173  -0.044746
    12  H   -0.038618   0.420938  -0.044098  -0.001668   0.000305   0.006014
    13  H    0.007995  -0.037451   0.412913  -0.010320   0.002014   0.005643
    14  H   -0.000042   0.002014  -0.010320   0.412913  -0.037451  -0.000271
    15  H   -0.000160   0.000305  -0.001668  -0.044098   0.420938   0.002805
    16  H   -0.037937   0.008263   0.005290   0.000219  -0.001291   0.417302
    17  H    0.002004  -0.000173  -0.000139   0.006466  -0.044499   0.000882
    18  H    0.000059  -0.001291   0.000219   0.005290   0.008263   0.000017
    19  H   -0.000225   0.002685   0.004613  -0.028699  -0.001599  -0.000180
    20  H    0.000772  -0.003565  -0.002906  -0.040971   0.007049   0.000155
    21  H   -0.002013  -0.001599  -0.028699   0.004613   0.002685  -0.030752
    22  H    0.005125   0.007049  -0.040971  -0.002906  -0.003565  -0.034782
               7          8          9         10         11         12
     1  C   -0.012936  -0.008766   0.000570  -0.094068   0.420636  -0.038618
     2  C    0.001952   0.020780  -0.011718  -0.099965  -0.044499   0.420938
     3  C   -0.007581  -0.010849  -0.023678   0.379160   0.006466  -0.044098
     4  C   -0.077704  -0.098920   0.379161  -0.023679  -0.000139  -0.001668
     5  C    0.442118  -0.085004  -0.099966  -0.011718  -0.000173   0.000305
     6  C   -0.008767  -0.002287   0.000801   0.377903  -0.044746   0.006014
     7  C    4.878583   0.583332  -0.094068   0.000570   0.002004  -0.000160
     8  C    0.583332   5.065464   0.377903   0.000801   0.000882   0.002805
     9  C   -0.094068   0.377903   4.887966   0.002217  -0.000089  -0.000100
    10  C    0.000570   0.000801   0.002217   4.887968   0.009015   0.007904
    11  H    0.002004   0.000882  -0.000089   0.009015   0.572661  -0.002408
    12  H   -0.000160   0.002805  -0.000100   0.007904  -0.002408   0.557880
    13  H   -0.000042  -0.000271  -0.002318  -0.033761  -0.000302  -0.004539
    14  H    0.007995   0.005643  -0.033761  -0.002318   0.000022  -0.000025
    15  H   -0.038617   0.006014   0.007904  -0.000100  -0.000037  -0.000002
    16  H    0.000059   0.000017  -0.000004  -0.038851  -0.005242  -0.000323
    17  H    0.420635  -0.044746   0.009015  -0.000089   0.000138  -0.000037
    18  H   -0.037937   0.417301  -0.038851  -0.000004   0.000019   0.000235
    19  H   -0.002013  -0.030752   0.382493  -0.000177   0.000004   0.000085
    20  H    0.005125  -0.034782   0.406741   0.000416  -0.000016   0.000104
    21  H   -0.000225  -0.000180  -0.000177   0.382493  -0.000510  -0.000471
    22  H    0.000772   0.000155   0.000416   0.406741  -0.000275  -0.000263
              13         14         15         16         17         18
     1  C    0.007995  -0.000042  -0.000160  -0.037937   0.002004   0.000059
     2  C   -0.037451   0.002014   0.000305   0.008263  -0.000173  -0.001291
     3  C    0.412913  -0.010320  -0.001668   0.005290  -0.000139   0.000219
     4  C   -0.010320   0.412913  -0.044098   0.000219   0.006466   0.005290
     5  C    0.002014  -0.037451   0.420938  -0.001291  -0.044499   0.008263
     6  C    0.005643  -0.000271   0.002805   0.417302   0.000882   0.000017
     7  C   -0.000042   0.007995  -0.038617   0.000059   0.420635  -0.037937
     8  C   -0.000271   0.005643   0.006014   0.000017  -0.044746   0.417301
     9  C   -0.002318  -0.033761   0.007904  -0.000004   0.009015  -0.038851
    10  C   -0.033761  -0.002318  -0.000100  -0.038851  -0.000089  -0.000004
    11  H   -0.000302   0.000022  -0.000037  -0.005242   0.000138   0.000019
    12  H   -0.004539  -0.000025  -0.000002  -0.000323  -0.000037   0.000235
    13  H    0.546539  -0.002144  -0.000025  -0.000277   0.000022   0.000017
    14  H   -0.002144   0.546538  -0.004539   0.000017  -0.000302  -0.000277
    15  H   -0.000025  -0.004539   0.557880   0.000235  -0.002408  -0.000323
    16  H   -0.000277   0.000017   0.000235   0.560182   0.000019  -0.000000
    17  H    0.000022  -0.000302  -0.002408   0.000019   0.572662  -0.005242
    18  H    0.000017  -0.000277  -0.000323  -0.000000  -0.005242   0.560182
    19  H   -0.000229  -0.000712  -0.000471   0.000001  -0.000510   0.000297
    20  H    0.001539  -0.000921  -0.000263  -0.000004  -0.000275  -0.001739
    21  H   -0.000712  -0.000229   0.000085   0.000297   0.000004   0.000001
    22  H   -0.000922   0.001539   0.000104  -0.001739  -0.000016  -0.000004
              19         20         21         22
     1  C   -0.000225   0.000772  -0.002013   0.005125
     2  C    0.002685  -0.003565  -0.001599   0.007049
     3  C    0.004613  -0.002906  -0.028699  -0.040971
     4  C   -0.028699  -0.040971   0.004613  -0.002906
     5  C   -0.001599   0.007049   0.002685  -0.003565
     6  C   -0.000180   0.000155  -0.030752  -0.034782
     7  C   -0.002013   0.005125  -0.000225   0.000772
     8  C   -0.030752  -0.034782  -0.000180   0.000155
     9  C    0.382493   0.406741  -0.000177   0.000416
    10  C   -0.000177   0.000416   0.382493   0.406741
    11  H    0.000004  -0.000016  -0.000510  -0.000275
    12  H    0.000085   0.000104  -0.000471  -0.000263
    13  H   -0.000229   0.001539  -0.000712  -0.000922
    14  H   -0.000712  -0.000921  -0.000229   0.001539
    15  H   -0.000471  -0.000263   0.000085   0.000104
    16  H    0.000001  -0.000004   0.000297  -0.001739
    17  H   -0.000510  -0.000275   0.000004  -0.000016
    18  H    0.000297  -0.001739   0.000001  -0.000004
    19  H    0.570510  -0.031524   0.000007  -0.000054
    20  H   -0.031524   0.572012  -0.000054  -0.000017
    21  H    0.000007  -0.000054   0.570509  -0.031524
    22  H   -0.000054  -0.000017  -0.031524   0.572012
 Mulliken charges:
               1
     1  C   -0.063096
     2  C   -0.077652
     3  C   -0.197270
     4  C   -0.197270
     5  C   -0.077654
     6  C   -0.164539
     7  C   -0.063096
     8  C   -0.164537
     9  C   -0.150457
    10  C   -0.150458
    11  H    0.086592
    12  H    0.096444
    13  H    0.116632
    14  H    0.116633
    15  H    0.096444
    16  H    0.093770
    17  H    0.086591
    18  H    0.093770
    19  H    0.136452
    20  H    0.123125
    21  H    0.136452
    22  H    0.123125
 Sum of Mulliken charges =  -0.00000
 Mulliken charges with hydrogens summed into heavy atoms:
               1
     1  C    0.023495
     2  C    0.018792
     3  C   -0.080638
     4  C   -0.080637
     5  C    0.018790
     6  C   -0.070769
     7  C    0.023495
     8  C   -0.070767
     9  C    0.109119
    10  C    0.109120
 APT charges:
               1
     1  C   -0.012742
     2  C   -0.123399
     3  C    0.050446
     4  C    0.050439
     5  C   -0.123394
     6  C   -0.057802
     7  C   -0.012740
     8  C   -0.057807
     9  C    0.003819
    10  C    0.003817
    11  H    0.041659
    12  H    0.048085
    13  H    0.022447
    14  H    0.022447
    15  H    0.048084
    16  H    0.030328
    17  H    0.041658
    18  H    0.030329
    19  H   -0.014091
    20  H    0.011254
    21  H   -0.014091
    22  H    0.011254
 Sum of APT charges =   0.00000
 APT charges with hydrogens summed into heavy atoms:
               1
     1  C    0.028917
     2  C   -0.075315
     3  C    0.072893
     4  C    0.072886
     5  C   -0.075310
     6  C   -0.027474
     7  C    0.028919
     8  C   -0.027478
     9  C    0.000982
    10  C    0.000980
 Electronic spatial extent (au):  <R**2>=           1198.3619
 Charge=             -0.0000 electrons
 Dipole moment (field-independent basis, Debye):
    X=              0.0000    Y=             -0.6158    Z=             -0.0000  Tot=              0.6158
 Quadrupole moment (field-independent basis, Debye-Ang):
   XX=            -63.1036   YY=            -56.7227   ZZ=            -59.6302
   XY=              0.0000   XZ=             -4.4821   YZ=              0.0000
 Traceless Quadrupole moment (field-independent basis, Debye-Ang):
   XX=             -3.2848   YY=              3.0961   ZZ=              0.1887
   XY=              0.0000   XZ=             -4.4821   YZ=              0.0000
 Octapole moment (field-independent basis, Debye-Ang**2):
  XXX=             -0.0001  YYY=              1.1398  ZZZ=              0.0001  XYY=             -0.0000
  XXY=             -3.4791  XXZ=             -0.0000  XZZ=              0.0000  YZZ=              1.6727
  YYZ=             -0.0001  XYZ=             -0.4913
 Hexadecapole moment (field-independent basis, Debye-Ang**3):
 XXXX=           -926.1159 YYYY=           -389.6788 ZZZZ=           -352.8871 XXXY=              0.0001
 XXXZ=            -29.2524 YYYX=             -0.0001 YYYZ=              0.0001 ZZZX=            -19.4439
 ZZZY=             -0.0000 XXYY=           -216.1069 XXZZ=           -219.0616 YYZZ=           -124.3526
 XXYZ=              0.0003 YYXZ=             -2.6420 ZZXY=              0.0003
 N-N= 5.174889995322D+02 E-N=-1.935742742874D+03  KE= 3.866000912539D+02
  Exact polarizability: 140.615   0.000 120.365  -9.851  -0.000 115.358
 Approx polarizability: 192.083   0.001 180.914 -16.338  -0.001 185.607
 D2PCM: PCM CHGder 2nd derivatives, FixD1E=F FixD2E=F DoIter=F DoCFld=F I1PDM=0
 Calling FoFJK, ICntrl=    100127 FMM=F ISym2X=0 I1Cent= 0 IOpClX= 0 NMat=1 NMatS=1 NMatT=0.
 Full mass-weighted force constant matrix:
 Low frequencies ---  -58.1958  -47.6418  -46.2323  -15.9377   -0.0006   -0.0005
 Low frequencies ---   -0.0005  112.5049  144.8796
 ******    1 imaginary frequencies (negative Signs) ****** 
 Diagonal vibrational polarizability:
        8.4951202       2.2134011       5.2371210
 Harmonic frequencies (cm**-1), IR intensities (KM/Mole), Raman scattering
 activities (A**4/AMU), depolarization ratios for plane and unpolarized
 incident light, reduced masses (AMU), force constants (mDyne/A),
 and normal coordinates:
                      1                      2                      3
                      A                      A                      A
 Frequencies --    -57.2416               112.1946               144.7629
 Red. masses --      7.9738                 3.3024                 4.0885
 Frc consts  --      0.0154                 0.0245                 0.0505
 IR Inten    --      0.0045                 0.0672                 0.4084
  Atom  AN      X      Y      Z        X      Y      Z        X      Y      Z
     1   6    -0.13  -0.03   0.02     0.05   0.03  -0.13     0.06   0.07   0.02
     2   6    -0.18   0.02  -0.05    -0.03   0.14  -0.04    -0.15   0.09  -0.09
     3   6    -0.38   0.00  -0.23    -0.08   0.06   0.07    -0.13   0.09  -0.08
     4   6     0.38   0.00   0.23     0.08   0.06  -0.07    -0.13  -0.09  -0.08
     5   6     0.18   0.02   0.05     0.03   0.14   0.04    -0.15  -0.09  -0.09
     6   6    -0.22   0.00  -0.06     0.06  -0.12  -0.07     0.21   0.04   0.11
     7   6     0.13  -0.03  -0.02    -0.05   0.03   0.13     0.06  -0.07   0.02
     8   6     0.22   0.00   0.06    -0.06  -0.12   0.07     0.21  -0.04   0.11
     9   6     0.12  -0.00   0.05     0.01  -0.11  -0.09     0.01  -0.05   0.03
    10   6    -0.12  -0.00  -0.05    -0.01  -0.11   0.09     0.01   0.05   0.03
    11   1    -0.08  -0.03   0.05     0.11   0.07  -0.25     0.13   0.06   0.05
    12   1    -0.06  -0.04   0.02    -0.04   0.27  -0.06    -0.20   0.10  -0.11
    13   1    -0.12   0.01  -0.06    -0.14   0.11   0.17    -0.18   0.10  -0.09
    14   1     0.12   0.01   0.06     0.14   0.11  -0.17    -0.18  -0.10  -0.09
    15   1     0.06  -0.04  -0.02     0.04   0.27   0.06    -0.20  -0.10  -0.11
    16   1    -0.24   0.03  -0.05     0.12  -0.23  -0.11     0.37   0.02   0.20
    17   1     0.08  -0.03  -0.05    -0.11   0.07   0.25     0.13  -0.06   0.05
    18   1     0.24   0.03   0.05    -0.12  -0.23   0.11     0.37  -0.02   0.20
    19   1     0.17   0.07  -0.20     0.05  -0.13  -0.17    -0.07   0.11   0.08
    20   1    -0.10  -0.05   0.08    -0.00  -0.20  -0.12     0.03  -0.15  -0.03
    21   1    -0.17   0.07   0.20    -0.05  -0.13   0.17    -0.07  -0.11   0.08
    22   1     0.10  -0.05  -0.08     0.00  -0.20   0.12     0.03   0.15  -0.03
                      4                      5                      6
                      A                      A                      A
 Frequencies --    192.5401               235.6733               273.1907
 Red. masses --      3.9143                 3.4806                 3.7212
 Frc consts  --      0.0855                 0.1139                 0.1636
 IR Inten    --      0.5387                 0.1065                 0.1526
  Atom  AN      X      Y      Z        X      Y      Z        X      Y      Z
     1   6     0.21  -0.03   0.10     0.16   0.06   0.06    -0.10   0.00  -0.11
     2   6     0.04   0.01  -0.02     0.11   0.08   0.07    -0.09  -0.02  -0.15
     3   6    -0.12   0.03  -0.14    -0.06   0.09   0.01     0.04  -0.02  -0.13
     4   6     0.12   0.03   0.14    -0.06  -0.09   0.01    -0.04  -0.02   0.13
     5   6    -0.04   0.01   0.02     0.11  -0.08   0.07     0.09  -0.02   0.15
     6   6     0.18  -0.00   0.06    -0.05   0.06  -0.04     0.13   0.02  -0.01
     7   6    -0.21  -0.03  -0.10     0.16  -0.06   0.06     0.10   0.00   0.11
     8   6    -0.18  -0.00  -0.06    -0.05  -0.06  -0.04    -0.13   0.02   0.01
     9   6     0.01   0.00   0.06    -0.16  -0.06  -0.09    -0.18   0.02   0.01
    10   6    -0.01   0.00  -0.06    -0.16   0.06  -0.09     0.18   0.02  -0.01
    11   1     0.37  -0.05   0.19     0.34   0.04   0.14    -0.23   0.01  -0.15
    12   1     0.06  -0.02  -0.01     0.22   0.08   0.12    -0.22  -0.03  -0.22
    13   1    -0.11   0.03  -0.13    -0.06   0.10   0.02     0.10  -0.03  -0.12
    14   1     0.11   0.03   0.13    -0.06  -0.10   0.02    -0.10  -0.03   0.12
    15   1    -0.06  -0.02   0.01     0.22  -0.08   0.12     0.22  -0.03   0.22
    16   1     0.30  -0.01   0.14    -0.08   0.04  -0.07     0.20   0.04   0.06
    17   1    -0.37  -0.05  -0.19     0.34  -0.04   0.14     0.23   0.01   0.15
    18   1    -0.30  -0.01  -0.14    -0.08  -0.04  -0.07    -0.20   0.04  -0.06
    19   1     0.08  -0.15   0.01    -0.15   0.00  -0.20    -0.14   0.03  -0.12
    20   1    -0.00   0.11   0.12    -0.28  -0.09  -0.07    -0.31   0.02   0.05
    21   1    -0.08  -0.15  -0.01    -0.15  -0.00  -0.20     0.14   0.03   0.12
    22   1     0.00   0.11  -0.12    -0.28   0.09  -0.07     0.31   0.02  -0.05
                      7                      8                      9
                      A                      A                      A
 Frequencies --    416.1009               441.8820               554.0718
 Red. masses --      1.8566                 1.7177                 2.5442
 Frc consts  --      0.1894                 0.1976                 0.4602
 IR Inten    --      0.0075                 1.0765                 0.5864
  Atom  AN      X      Y      Z        X      Y      Z        X      Y      Z
     1   6    -0.06   0.01  -0.02     0.06  -0.01   0.03    -0.12   0.03  -0.06
     2   6    -0.09   0.01  -0.03     0.01  -0.00  -0.01     0.15  -0.02   0.09
     3   6     0.02   0.00   0.03    -0.08   0.01  -0.06    -0.08   0.01  -0.04
     4   6    -0.02   0.00  -0.03    -0.08  -0.01  -0.06     0.08   0.01   0.04
     5   6     0.09   0.01   0.03     0.01   0.00  -0.01    -0.15  -0.02  -0.09
     6   6     0.06  -0.01   0.05    -0.08   0.01  -0.06     0.09  -0.01   0.07
     7   6     0.06   0.01   0.02     0.06   0.01   0.03     0.12   0.03   0.06
     8   6    -0.06  -0.01  -0.05    -0.08  -0.01  -0.06    -0.09  -0.01  -0.07
     9   6     0.11  -0.01   0.07     0.05  -0.01   0.06     0.00  -0.01  -0.01
    10   6    -0.11  -0.01  -0.07     0.05   0.01   0.06    -0.00  -0.01   0.01
    11   1    -0.09   0.01  -0.04     0.16  -0.03   0.10    -0.36   0.06  -0.20
    12   1    -0.18   0.03  -0.08    -0.00   0.00  -0.02     0.36  -0.06   0.20
    13   1    -0.05   0.00  -0.01    -0.13   0.01  -0.10     0.02   0.01   0.02
    14   1     0.05   0.00   0.01    -0.13  -0.01  -0.10    -0.02   0.01  -0.02
    15   1     0.18   0.03   0.08    -0.00  -0.00  -0.02    -0.36  -0.06  -0.20
    16   1     0.13  -0.02   0.09    -0.08   0.01  -0.06    -0.05  -0.01  -0.02
    17   1     0.09   0.01   0.04     0.16   0.03   0.10     0.36   0.06   0.20
    18   1    -0.13  -0.02  -0.09    -0.08  -0.01  -0.06     0.05  -0.01   0.02
    19   1     0.11  -0.23   0.36     0.04  -0.24   0.39     0.09  -0.20  -0.04
    20   1     0.39   0.17   0.09     0.37   0.19   0.08     0.02   0.14   0.06
    21   1    -0.11  -0.23  -0.36     0.04   0.24   0.39    -0.09  -0.20   0.04
    22   1    -0.39   0.17  -0.09     0.37  -0.19   0.08    -0.02   0.14  -0.06
                     10                     11                     12
                      A                      A                      A
 Frequencies --    571.2754               703.5076               705.1418
 Red. masses --      2.4890                 1.2014                 1.2593
 Frc consts  --      0.4786                 0.3503                 0.3689
 IR Inten    --      5.3505                99.7495                 0.7277
  Atom  AN      X      Y      Z        X      Y      Z        X      Y      Z
     1   6    -0.09   0.03  -0.06    -0.06  -0.01  -0.04     0.06   0.01   0.05
     2   6     0.15  -0.02   0.07     0.01  -0.01   0.00    -0.02   0.02  -0.00
     3   6    -0.12   0.03  -0.07     0.02  -0.01   0.02    -0.00   0.01  -0.02
     4   6    -0.12  -0.03  -0.07     0.02   0.01   0.02     0.00   0.01   0.02
     5   6     0.15   0.02   0.07     0.01   0.01   0.00     0.02   0.02   0.00
     6   6     0.08   0.00   0.04    -0.01   0.01  -0.03     0.01  -0.02   0.03
     7   6    -0.09  -0.03  -0.06    -0.06   0.01  -0.04    -0.06   0.01  -0.05
     8   6     0.08  -0.00   0.04    -0.01  -0.01  -0.03    -0.01  -0.02  -0.03
     9   6    -0.01  -0.00   0.02    -0.04  -0.02  -0.00    -0.06  -0.02   0.00
    10   6    -0.01   0.00   0.02    -0.04   0.02  -0.00     0.06  -0.02  -0.00
    11   1    -0.31   0.06  -0.18     0.22  -0.05   0.13    -0.19   0.04  -0.13
    12   1     0.40  -0.07   0.21     0.17  -0.02   0.09    -0.15   0.01  -0.07
    13   1    -0.08   0.02  -0.06     0.05  -0.02   0.00     0.00   0.02   0.02
    14   1    -0.08  -0.02  -0.06     0.05   0.02   0.00    -0.00   0.02  -0.02
    15   1     0.40   0.07   0.21     0.17   0.02   0.09     0.15   0.01   0.07
    16   1    -0.05   0.00  -0.04     0.51  -0.04   0.28    -0.52   0.04  -0.28
    17   1    -0.31  -0.06  -0.18     0.22   0.05   0.13     0.19   0.04   0.13
    18   1    -0.05  -0.00  -0.04     0.51   0.04   0.28     0.52   0.04   0.28
    19   1    -0.10   0.13   0.18    -0.02  -0.14   0.08    -0.03  -0.16   0.11
    20   1     0.11  -0.08  -0.05     0.06   0.10   0.03     0.07   0.10   0.03
    21   1    -0.10  -0.13   0.18    -0.02   0.14   0.08     0.03  -0.16  -0.11
    22   1     0.11   0.08  -0.05     0.06  -0.10   0.03    -0.07   0.10  -0.03
                     13                     14                     15
                      A                      A                      A
 Frequencies --    768.0875               772.9613               804.7674
 Red. masses --      1.2638                 1.2694                 3.6066
 Frc consts  --      0.4393                 0.4468                 1.3762
 IR Inten    --      0.2541                79.0703                 0.1509
  Atom  AN      X      Y      Z        X      Y      Z        X      Y      Z
     1   6     0.00   0.02   0.02     0.02   0.01   0.01     0.06   0.00  -0.05
     2   6    -0.06   0.04  -0.06    -0.07   0.01  -0.06     0.01  -0.07  -0.11
     3   6     0.01  -0.02  -0.00     0.00  -0.02  -0.00    -0.05  -0.14   0.06
     4   6    -0.01  -0.02   0.00     0.00   0.02  -0.00     0.05  -0.14  -0.06
     5   6     0.06   0.04   0.06    -0.07  -0.01  -0.06    -0.01  -0.07   0.11
     6   6     0.00  -0.02   0.03     0.02  -0.01   0.02     0.11   0.09  -0.03
     7   6    -0.00   0.02  -0.02     0.02  -0.01   0.01    -0.06   0.00   0.05
     8   6    -0.00  -0.02  -0.03     0.02   0.01   0.02    -0.11   0.09   0.03
     9   6    -0.00  -0.01   0.01    -0.03  -0.00  -0.01     0.15   0.12  -0.11
    10   6     0.00  -0.01  -0.01    -0.03   0.00  -0.01    -0.15   0.12   0.11
    11   1     0.11   0.02   0.06     0.08  -0.00   0.05    -0.16  -0.04   0.06
    12   1     0.38  -0.09   0.19     0.41  -0.13   0.20    -0.01   0.07  -0.13
    13   1     0.43   0.00   0.30     0.35  -0.01   0.23     0.09  -0.17   0.05
    14   1    -0.43   0.00  -0.30     0.35   0.01   0.23    -0.09  -0.17  -0.05
    15   1    -0.38  -0.09  -0.19     0.41   0.13   0.20     0.01   0.07   0.13
    16   1    -0.05  -0.03  -0.01    -0.18  -0.01  -0.11    -0.20  -0.04  -0.34
    17   1    -0.11   0.02  -0.06     0.08   0.00   0.05     0.16  -0.04  -0.06
    18   1     0.05  -0.03   0.01    -0.18   0.01  -0.11     0.20  -0.04   0.34
    19   1     0.01  -0.03   0.00    -0.05  -0.02   0.11     0.18   0.13  -0.25
    20   1    -0.02   0.03   0.04     0.10   0.01  -0.03    -0.04   0.10  -0.07
    21   1    -0.01  -0.03  -0.00    -0.05   0.02   0.11    -0.18   0.13   0.25
    22   1     0.02   0.03  -0.04     0.10  -0.01  -0.03     0.04   0.10   0.07
                     16                     17                     18
                      A                      A                      A
 Frequencies --    820.3275               827.6501               835.4684
 Red. masses --      4.1637                 5.2349                 4.6194
 Frc consts  --      1.6508                 2.1128                 1.8998
 IR Inten    --      5.7655                 9.7374                 1.8852
  Atom  AN      X      Y      Z        X      Y      Z        X      Y      Z
     1   6    -0.06   0.02   0.06     0.01  -0.25  -0.07    -0.01   0.23   0.05
     2   6    -0.05   0.08   0.09    -0.14  -0.01   0.20     0.15  -0.00  -0.17
     3   6     0.04   0.17  -0.09    -0.03   0.10   0.06     0.02  -0.10  -0.06
     4   6     0.04  -0.17  -0.09    -0.03  -0.10   0.06    -0.02  -0.10   0.06
     5   6    -0.05  -0.08   0.09    -0.14   0.01   0.20    -0.15  -0.00   0.17
     6   6    -0.10  -0.12   0.07     0.11   0.01  -0.13    -0.11  -0.00   0.11
     7   6    -0.06  -0.02   0.06     0.01   0.25  -0.07     0.01   0.23  -0.05
     8   6    -0.10   0.12   0.07     0.11  -0.01  -0.13     0.11  -0.00  -0.11
     9   6     0.13   0.13  -0.13     0.05  -0.13  -0.05     0.03  -0.13  -0.05
    10   6     0.13  -0.13  -0.13     0.05   0.13  -0.05    -0.03  -0.13   0.05
    11   1     0.23   0.07  -0.08    -0.00  -0.22  -0.17    -0.01   0.21   0.14
    12   1     0.13  -0.18   0.21     0.03   0.14   0.27    -0.14  -0.11  -0.30
    13   1    -0.04   0.22  -0.00     0.12  -0.01  -0.17    -0.23   0.01   0.08
    14   1    -0.04  -0.22  -0.00     0.12   0.01  -0.17     0.23   0.01  -0.08
    15   1     0.13   0.18   0.21     0.03  -0.14   0.27     0.14  -0.11   0.30
    16   1     0.02   0.02   0.26    -0.12   0.25  -0.10     0.14  -0.23   0.10
    17   1     0.23  -0.07  -0.08    -0.00   0.22  -0.17     0.01   0.21  -0.14
    18   1     0.02  -0.02   0.26    -0.12  -0.25  -0.10    -0.14  -0.23  -0.10
    19   1     0.12   0.12  -0.12    -0.02  -0.02   0.05    -0.05  -0.02   0.07
    20   1     0.08   0.12  -0.13     0.00   0.03   0.04     0.01   0.02   0.02
    21   1     0.12  -0.12  -0.12    -0.02   0.02   0.05     0.05  -0.02  -0.07
    22   1     0.08  -0.12  -0.13     0.00  -0.03   0.04    -0.01   0.02  -0.02
                     19                     20                     21
                      A                      A                      A
 Frequencies --    896.1579               908.0356               920.1177
 Red. masses --      1.9632                 1.5723                 1.2377
 Frc consts  --      0.9289                 0.7638                 0.6174
 IR Inten    --     12.4404                14.5769                 1.3330
  Atom  AN      X      Y      Z        X      Y      Z        X      Y      Z
     1   6    -0.01   0.02   0.01     0.00   0.01  -0.02     0.01   0.02  -0.01
     2   6    -0.02  -0.00   0.00    -0.04  -0.01  -0.03    -0.06  -0.02  -0.04
     3   6     0.10   0.08  -0.04    -0.04  -0.03   0.03     0.02   0.01   0.01
     4   6    -0.10   0.08   0.04    -0.04   0.03   0.03    -0.02   0.01  -0.01
     5   6     0.02  -0.00  -0.00    -0.04   0.01  -0.03     0.06  -0.02   0.04
     6   6     0.03  -0.07   0.06    -0.02   0.06  -0.04     0.00   0.03  -0.02
     7   6     0.01   0.02  -0.01     0.00  -0.01  -0.02    -0.01   0.02   0.01
     8   6    -0.03  -0.07  -0.06    -0.02  -0.06  -0.04    -0.00   0.03   0.02
     9   6     0.11   0.00   0.05     0.10   0.03   0.05    -0.02  -0.01  -0.04
    10   6    -0.11   0.00  -0.05     0.10  -0.03   0.05     0.02  -0.01   0.04
    11   1     0.00   0.06  -0.12     0.09  -0.02   0.12     0.01   0.00   0.03
    12   1    -0.04  -0.21   0.01     0.35  -0.03   0.17     0.38  -0.19   0.20
    13   1    -0.01   0.03  -0.23    -0.33  -0.00  -0.04    -0.42   0.02  -0.25
    14   1     0.01   0.03   0.23    -0.33   0.00  -0.04     0.42   0.02   0.25
    15   1     0.04  -0.21  -0.01     0.35   0.03   0.17    -0.38  -0.19  -0.20
    16   1    -0.17  -0.11  -0.09     0.00   0.09  -0.00    -0.04   0.00  -0.07
    17   1    -0.00   0.06   0.12     0.09   0.02   0.12    -0.01   0.00  -0.03
    18   1     0.17  -0.11   0.09     0.00  -0.09  -0.00     0.04   0.00   0.07
    19   1     0.16   0.15  -0.36     0.14   0.13  -0.28    -0.02  -0.07   0.05
    20   1    -0.25  -0.22   0.02    -0.22  -0.10   0.07     0.10   0.02  -0.06
    21   1    -0.16   0.15   0.36     0.14  -0.14  -0.28     0.02  -0.07  -0.05
    22   1     0.25  -0.22  -0.02    -0.22   0.10   0.07    -0.10   0.02   0.06
                     22                     23                     24
                      A                      A                      A
 Frequencies --    941.4147               947.3963               953.0569
 Red. masses --      1.8015                 1.5965                 1.3161
 Frc consts  --      0.9407                 0.8443                 0.7044
 IR Inten    --     12.0102                 1.4799                 3.5803
  Atom  AN      X      Y      Z        X      Y      Z        X      Y      Z
     1   6    -0.03  -0.03   0.02    -0.08   0.01  -0.03    -0.08   0.01  -0.05
     2   6     0.04   0.02  -0.01     0.02   0.00  -0.01     0.03  -0.01   0.02
     3   6    -0.07  -0.02   0.05    -0.02  -0.01   0.05    -0.00   0.00  -0.01
     4   6    -0.07   0.02   0.05     0.02  -0.01  -0.05    -0.00  -0.00  -0.01
     5   6     0.04  -0.02  -0.01    -0.02   0.00   0.01     0.03   0.01   0.02
     6   6     0.03   0.09  -0.01     0.06   0.06   0.02     0.04  -0.02   0.02
     7   6    -0.03   0.03   0.02     0.08   0.01   0.03    -0.08  -0.01  -0.05
     8   6     0.03  -0.09  -0.01    -0.06   0.06  -0.02     0.04   0.02   0.02
     9   6     0.03   0.08  -0.09    -0.01  -0.07   0.07     0.01  -0.02   0.02
    10   6     0.03  -0.08  -0.09     0.01  -0.07  -0.07     0.01   0.02   0.02
    11   1    -0.04  -0.08   0.20     0.33  -0.07   0.32     0.53  -0.05   0.28
    12   1    -0.12   0.19  -0.11    -0.04   0.05  -0.04    -0.14   0.03  -0.07
    13   1     0.06   0.07   0.40    -0.18   0.06   0.14     0.03  -0.01  -0.03
    14   1     0.06  -0.07   0.40     0.18   0.06  -0.13     0.03   0.01  -0.03
    15   1    -0.12  -0.19  -0.11     0.04   0.05   0.04    -0.14  -0.03  -0.07
    16   1    -0.06   0.34   0.11    -0.28   0.24  -0.08    -0.24  -0.04  -0.17
    17   1    -0.04   0.08   0.20    -0.33  -0.07  -0.32     0.53   0.05   0.28
    18   1    -0.06  -0.34   0.11     0.28   0.24   0.08    -0.24   0.04  -0.17
    19   1    -0.02   0.09   0.07     0.02  -0.04  -0.08    -0.01   0.05  -0.01
    20   1     0.12   0.16  -0.07    -0.11  -0.16   0.05    -0.02  -0.08  -0.01
    21   1    -0.02  -0.09   0.07    -0.02  -0.04   0.08    -0.01  -0.05  -0.01
    22   1     0.12  -0.16  -0.07     0.11  -0.16  -0.05    -0.02   0.08  -0.01
                     25                     26                     27
                      A                      A                      A
 Frequencies --    953.7941               976.9625               978.6044
 Red. masses --      1.5269                 1.6149                 1.6075
 Frc consts  --      0.8184                 0.9081                 0.9070
 IR Inten    --      0.0801                 9.2962                 5.8286
  Atom  AN      X      Y      Z        X      Y      Z        X      Y      Z
     1   6     0.06  -0.02   0.05    -0.02   0.03   0.00     0.01   0.01  -0.02
     2   6    -0.01   0.02  -0.03    -0.03  -0.00  -0.00    -0.01   0.01   0.00
     3   6    -0.01  -0.02   0.05     0.09   0.02   0.02    -0.03  -0.06   0.06
     4   6     0.01  -0.02  -0.05     0.09  -0.02   0.02     0.03  -0.06  -0.06
     5   6     0.01   0.02   0.03    -0.03   0.00  -0.00     0.01   0.01  -0.00
     6   6     0.00   0.06  -0.01     0.06   0.05   0.01    -0.01  -0.07   0.05
     7   6    -0.06  -0.02  -0.05    -0.02  -0.03   0.00    -0.01   0.01   0.02
     8   6    -0.00   0.06   0.01     0.06  -0.05   0.01     0.01  -0.07  -0.05
     9   6     0.02  -0.06   0.08    -0.07   0.06  -0.03    -0.02   0.06   0.07
    10   6    -0.02  -0.06  -0.08    -0.07  -0.06  -0.03     0.02   0.06  -0.07
    11   1    -0.49   0.02  -0.16    -0.02   0.01   0.06     0.09   0.05  -0.14
    12   1     0.10   0.04   0.03     0.08  -0.12   0.06     0.09   0.11   0.05
    13   1    -0.12   0.05   0.15    -0.33  -0.01  -0.31    -0.28  -0.02   0.05
    14   1     0.12   0.05  -0.15    -0.33   0.01  -0.31     0.28  -0.02  -0.05
    15   1    -0.10   0.04  -0.03     0.08   0.12   0.06    -0.09   0.11  -0.05
    16   1     0.12   0.20   0.17    -0.16   0.14  -0.08    -0.04  -0.15  -0.02
    17   1     0.49   0.02   0.16    -0.02  -0.01   0.06    -0.09   0.05   0.14
    18   1    -0.12   0.20  -0.17    -0.16  -0.14  -0.08     0.04  -0.15   0.02
    19   1     0.02   0.06  -0.09    -0.08  -0.04   0.16    -0.12   0.30   0.09
    20   1    -0.14  -0.20   0.05     0.01   0.38   0.11    -0.27   0.27   0.24
    21   1    -0.02   0.06   0.09    -0.08   0.04   0.16     0.12   0.30  -0.09
    22   1     0.14  -0.20  -0.05     0.01  -0.38   0.11     0.27   0.27  -0.24
                     28                     29                     30
                      A                      A                      A
 Frequencies --    983.7826              1060.3702              1060.4927
 Red. masses --      1.6339                 1.8565                 1.7653
 Frc consts  --      0.9317                 1.2299                 1.1697
 IR Inten    --     21.3317                 5.5013                 0.0832
  Atom  AN      X      Y      Z        X      Y      Z        X      Y      Z
     1   6    -0.00  -0.02   0.02     0.04   0.11  -0.04    -0.04  -0.10   0.03
     2   6     0.01  -0.02  -0.00    -0.04  -0.07   0.09     0.05   0.07  -0.08
     3   6     0.02   0.08  -0.08    -0.05  -0.05   0.02     0.04   0.04  -0.02
     4   6     0.02  -0.08  -0.08    -0.05   0.05   0.02    -0.04   0.04   0.02
     5   6     0.01   0.02  -0.00    -0.04   0.07   0.09    -0.05   0.07   0.08
     6   6    -0.01   0.05  -0.05     0.01   0.05  -0.03    -0.02  -0.05   0.03
     7   6    -0.00   0.02   0.02     0.04  -0.11  -0.04     0.04  -0.10  -0.03
     8   6    -0.01  -0.05  -0.05     0.01  -0.05  -0.03     0.02  -0.05  -0.03
     9   6    -0.01   0.04   0.09     0.01   0.03  -0.02     0.01   0.02  -0.02
    10   6    -0.01  -0.04   0.09     0.01  -0.03  -0.02    -0.01   0.02   0.02
    11   1    -0.06  -0.05   0.13     0.22   0.21  -0.33    -0.22  -0.21   0.35
    12   1    -0.09  -0.15  -0.05    -0.22  -0.40   0.04     0.18   0.43  -0.06
    13   1     0.34   0.04  -0.00     0.12  -0.06   0.10    -0.07   0.04  -0.10
    14   1     0.34  -0.04  -0.00     0.12   0.06   0.10     0.07   0.04   0.10
    15   1    -0.09   0.15  -0.05    -0.22   0.40   0.04    -0.18   0.43   0.06
    16   1     0.08   0.07   0.02     0.06   0.06  -0.01    -0.05  -0.07   0.00
    17   1    -0.06   0.05   0.13     0.23  -0.21  -0.34     0.22  -0.21  -0.35
    18   1     0.08  -0.07   0.02     0.06  -0.07  -0.01     0.05  -0.07  -0.00
    19   1    -0.13   0.35   0.06     0.02   0.00  -0.01     0.01   0.01  -0.03
    20   1    -0.28   0.13   0.21     0.04   0.07  -0.01     0.01   0.06  -0.00
    21   1    -0.13  -0.35   0.06     0.02  -0.00  -0.01    -0.01   0.01   0.03
    22   1    -0.28  -0.13   0.21     0.04  -0.07  -0.01    -0.01   0.06   0.00
                     31                     32                     33
                      A                      A                      A
 Frequencies --   1102.4867              1104.0334              1119.5131
 Red. masses --      1.1447                 1.1752                 1.3420
 Frc consts  --      0.8198                 0.8440                 0.9910
 IR Inten    --      0.3389                 0.5753                 0.3390
  Atom  AN      X      Y      Z        X      Y      Z        X      Y      Z
     1   6     0.01   0.01  -0.01     0.01   0.03  -0.01     0.01  -0.06  -0.02
     2   6    -0.01   0.03   0.00    -0.01   0.03   0.01     0.03  -0.01  -0.06
     3   6     0.00  -0.05  -0.00     0.01  -0.06  -0.00     0.02   0.02   0.01
     4   6     0.00   0.05  -0.00    -0.01  -0.06   0.00    -0.02   0.02  -0.01
     5   6    -0.01  -0.03   0.00     0.01   0.03  -0.01    -0.03  -0.01   0.06
     6   6    -0.04  -0.00   0.02    -0.02   0.01   0.03    -0.05  -0.02   0.02
     7   6     0.01  -0.01  -0.01    -0.01   0.03   0.01    -0.01  -0.06   0.02
     8   6    -0.04   0.00   0.02     0.02   0.01  -0.03     0.05  -0.02  -0.02
     9   6     0.01   0.01   0.00    -0.00  -0.02   0.00     0.01   0.04  -0.03
    10   6     0.01  -0.01   0.00     0.00  -0.02  -0.00    -0.01   0.04   0.03
    11   1     0.13   0.07  -0.18     0.13   0.08  -0.18     0.16   0.00  -0.24
    12   1     0.07   0.32   0.01     0.09   0.34   0.04    -0.02  -0.14  -0.08
    13   1     0.17  -0.21  -0.31     0.13  -0.23  -0.38    -0.10   0.12   0.17
    14   1     0.17   0.21  -0.31    -0.13  -0.23   0.38     0.10   0.12  -0.17
    15   1     0.07  -0.32   0.01    -0.09   0.34  -0.04     0.02  -0.14   0.08
    16   1    -0.06   0.24   0.19    -0.08   0.22   0.15    -0.08   0.31   0.26
    17   1     0.13  -0.07  -0.18    -0.13   0.08   0.18    -0.16   0.00   0.24
    18   1    -0.06  -0.24   0.19     0.08   0.22  -0.15     0.08   0.31  -0.26
    19   1    -0.10   0.22   0.11     0.05  -0.10  -0.06     0.16  -0.23  -0.17
    20   1     0.01  -0.03  -0.02     0.02  -0.06  -0.02    -0.03   0.21   0.06
    21   1    -0.10  -0.22   0.11    -0.05  -0.10   0.06    -0.16  -0.23   0.17
    22   1     0.01   0.03  -0.02    -0.02  -0.06   0.02     0.03   0.21  -0.06
                     34                     35                     36
                      A                      A                      A
 Frequencies --   1125.0956              1130.0157              1141.6051
 Red. masses --      1.3636                 1.2027                 1.1723
 Frc consts  --      1.0170                 0.9049                 0.9002
 IR Inten    --      1.4696                 5.8608                 4.3956
  Atom  AN      X      Y      Z        X      Y      Z        X      Y      Z
     1   6     0.00   0.06   0.03    -0.01  -0.03  -0.01     0.01  -0.02  -0.01
     2   6    -0.04   0.01   0.06     0.02   0.00  -0.03     0.00  -0.00  -0.03
     3   6     0.00  -0.02   0.02    -0.02   0.01  -0.03     0.05   0.01   0.04
     4   6     0.00   0.02   0.02     0.02   0.01   0.03     0.05  -0.01   0.04
     5   6    -0.04  -0.01   0.06    -0.02   0.00   0.03     0.00   0.00  -0.03
     6   6     0.00   0.02  -0.05     0.03  -0.01   0.05    -0.03  -0.00  -0.02
     7   6     0.00  -0.06   0.03     0.01  -0.03   0.01     0.01   0.02  -0.01
     8   6     0.00  -0.02  -0.05    -0.03  -0.01  -0.05    -0.03   0.00  -0.02
     9   6     0.03   0.03  -0.04     0.02   0.00  -0.03    -0.00  -0.03  -0.00
    10   6     0.03  -0.03  -0.04    -0.02   0.00   0.03    -0.00   0.03  -0.00
    11   1    -0.17  -0.02   0.30     0.07   0.01  -0.18     0.06  -0.01  -0.04
    12   1    -0.00   0.15   0.07     0.04  -0.04  -0.02    -0.03  -0.22  -0.02
    13   1     0.09  -0.11  -0.16    -0.01   0.05   0.07    -0.24   0.10   0.10
    14   1     0.09   0.11  -0.16     0.01   0.05  -0.07    -0.24  -0.10   0.10
    15   1    -0.00  -0.15   0.07    -0.04  -0.04   0.02    -0.03   0.22  -0.02
    16   1     0.15  -0.35  -0.24    -0.12   0.18   0.10     0.02   0.05   0.05
    17   1    -0.17   0.02   0.30    -0.07   0.01   0.18     0.06   0.01  -0.04
    18   1     0.15   0.35  -0.24     0.12   0.18  -0.10     0.02  -0.05   0.05
    19   1    -0.07   0.20   0.08    -0.21   0.40   0.24    -0.23   0.34   0.27
    20   1     0.13  -0.07  -0.13     0.18  -0.23  -0.19     0.13  -0.27  -0.16
    21   1    -0.07  -0.20   0.08     0.21   0.40  -0.24    -0.23  -0.34   0.27
    22   1     0.13   0.07  -0.13    -0.18  -0.23   0.19     0.13   0.27  -0.16
                     37                     38                     39
                      A                      A                      A
 Frequencies --   1276.1082              1280.6608              1311.6824
 Red. masses --      1.6253                 1.6184                 1.6512
 Frc consts  --      1.5594                 1.5639                 1.6739
 IR Inten    --      3.4944                 2.4112                 1.7562
  Atom  AN      X      Y      Z        X      Y      Z        X      Y      Z
     1   6    -0.02   0.02   0.03     0.01  -0.02  -0.03    -0.02  -0.04   0.03
     2   6     0.01  -0.03  -0.02    -0.01   0.03   0.02    -0.02  -0.04   0.03
     3   6    -0.02  -0.03   0.01     0.02   0.03  -0.01     0.06  -0.01  -0.08
     4   6    -0.02   0.03   0.01    -0.02   0.03   0.01    -0.06  -0.01   0.08
     5   6     0.01   0.03  -0.02     0.01   0.03  -0.02     0.02  -0.04  -0.03
     6   6    -0.01  -0.02   0.02     0.01   0.02  -0.03    -0.00   0.09   0.01
     7   6    -0.02  -0.02   0.03    -0.01  -0.02   0.03     0.02  -0.04  -0.03
     8   6    -0.01   0.02   0.02    -0.01   0.02   0.03     0.00   0.09  -0.01
     9   6     0.06  -0.12  -0.07     0.06  -0.11  -0.07     0.03  -0.05  -0.03
    10   6     0.06   0.12  -0.07    -0.06  -0.11   0.07    -0.03  -0.05   0.03
    11   1     0.05   0.06  -0.10    -0.05  -0.06   0.10     0.19   0.07  -0.32
    12   1     0.05   0.11  -0.02    -0.05  -0.11   0.02     0.06   0.37   0.03
    13   1    -0.10   0.04   0.15     0.12  -0.04  -0.15    -0.13   0.16   0.24
    14   1    -0.10  -0.04   0.15    -0.12  -0.04   0.15     0.13   0.16  -0.24
    15   1     0.05  -0.11  -0.02     0.05  -0.11  -0.02    -0.06   0.37  -0.03
    16   1     0.03  -0.19  -0.07    -0.03   0.18   0.06     0.07  -0.21  -0.17
    17   1     0.05  -0.06  -0.10     0.05  -0.06  -0.10    -0.19   0.07   0.32
    18   1     0.03   0.19  -0.07     0.03   0.18  -0.06    -0.07  -0.21   0.17
    19   1    -0.12   0.22   0.12    -0.12   0.22   0.13     0.01   0.00  -0.01
    20   1    -0.23   0.41   0.26    -0.23   0.41   0.26    -0.04   0.07   0.05
    21   1    -0.12  -0.22   0.12     0.12   0.22  -0.13    -0.01   0.00   0.01
    22   1    -0.23  -0.41   0.26     0.23   0.41  -0.26     0.04   0.07  -0.05
                     40                     41                     42
                      A                      A                      A
 Frequencies --   1312.1703              1408.6334              1416.4530
 Red. masses --      1.6491                 2.3283                 2.1001
 Frc consts  --      1.6729                 2.7219                 2.4825
 IR Inten    --      2.1282                16.6097                 9.6756
  Atom  AN      X      Y      Z        X      Y      Z        X      Y      Z
     1   6     0.02   0.04  -0.03    -0.07  -0.09   0.09    -0.06  -0.09   0.08
     2   6     0.02   0.04  -0.03     0.05   0.16  -0.03     0.05   0.11  -0.06
     3   6    -0.06   0.01   0.08    -0.01  -0.06   0.03    -0.05  -0.00   0.06
     4   6    -0.06  -0.01   0.08     0.01  -0.06  -0.03    -0.05   0.00   0.06
     5   6     0.02  -0.04  -0.03    -0.05   0.16   0.03     0.05  -0.11  -0.06
     6   6     0.01  -0.09  -0.01     0.02   0.06  -0.02     0.01   0.08   0.01
     7   6     0.02  -0.04  -0.03     0.07  -0.09  -0.09    -0.06   0.09   0.08
     8   6     0.01   0.09  -0.01    -0.02   0.06   0.02     0.01  -0.08   0.01
     9   6     0.03  -0.05  -0.03     0.01   0.01  -0.01     0.01   0.02  -0.01
    10   6     0.03   0.05  -0.03    -0.01   0.01   0.01     0.01  -0.02  -0.01
    11   1    -0.19  -0.07   0.32     0.15   0.01  -0.26     0.17   0.01  -0.30
    12   1    -0.06  -0.37  -0.03    -0.05  -0.38  -0.04    -0.02  -0.31  -0.06
    13   1     0.13  -0.15  -0.24     0.00  -0.14  -0.17     0.13  -0.16  -0.25
    14   1     0.13   0.16  -0.24    -0.00  -0.14   0.17     0.13   0.16  -0.25
    15   1    -0.06   0.37  -0.03     0.05  -0.38   0.04    -0.02   0.31  -0.06
    16   1    -0.07   0.21   0.16     0.07  -0.17  -0.16     0.08  -0.25  -0.19
    17   1    -0.19   0.07   0.32    -0.15   0.01   0.26     0.17  -0.01  -0.30
    18   1    -0.07  -0.21   0.16    -0.07  -0.17   0.16     0.08   0.25  -0.19
    19   1     0.01  -0.01  -0.01    -0.00  -0.15   0.18     0.03   0.05  -0.11
    20   1    -0.05   0.08   0.05    -0.17  -0.11  -0.01     0.07   0.05  -0.02
    21   1     0.01   0.01  -0.01     0.00  -0.15  -0.18     0.03  -0.05  -0.11
    22   1    -0.05  -0.08   0.05     0.17  -0.11   0.01     0.07  -0.05  -0.02
                     43                     44                     45
                      A                      A                      A
 Frequencies --   1440.4240              1446.0479              1460.8587
 Red. masses --      1.7553                 1.1774                 1.6606
 Frc consts  --      2.1458                 1.4506                 2.0880
 IR Inten    --      5.4902                16.3281                 1.0385
  Atom  AN      X      Y      Z        X      Y      Z        X      Y      Z
     1   6    -0.00  -0.04  -0.00    -0.00   0.01   0.01     0.02  -0.01  -0.03
     2   6     0.02  -0.03  -0.06    -0.00   0.02   0.01     0.01  -0.09  -0.05
     3   6    -0.05   0.07   0.08     0.01  -0.02  -0.02    -0.04   0.09   0.06
     4   6     0.05   0.07  -0.08     0.01   0.02  -0.02     0.04   0.09  -0.06
     5   6    -0.02  -0.03   0.06    -0.00  -0.02   0.01    -0.01  -0.09   0.05
     6   6    -0.02   0.06   0.05     0.01  -0.02  -0.02    -0.03   0.03   0.05
     7   6     0.00  -0.04   0.00    -0.00  -0.01   0.01    -0.02  -0.01   0.03
     8   6     0.02   0.06  -0.05     0.01   0.02  -0.02     0.03   0.03  -0.05
     9   6    -0.04  -0.06   0.05    -0.04  -0.05   0.04     0.02   0.01  -0.01
    10   6     0.04  -0.06  -0.05    -0.04   0.05   0.04    -0.02   0.01   0.01
    11   1     0.07  -0.01  -0.14    -0.01   0.00   0.03     0.03  -0.01  -0.05
    12   1     0.02  -0.06  -0.07    -0.01   0.00   0.02     0.06   0.09  -0.05
    13   1     0.17  -0.07  -0.19    -0.05   0.02   0.06     0.16  -0.00  -0.12
    14   1    -0.17  -0.07   0.19    -0.05  -0.02   0.06    -0.16  -0.00   0.12
    15   1    -0.02  -0.06   0.07    -0.01  -0.00   0.02    -0.06   0.09   0.05
    16   1     0.05  -0.20  -0.10    -0.01   0.06   0.03     0.01  -0.11  -0.02
    17   1    -0.07  -0.01   0.14    -0.01  -0.00   0.03    -0.03  -0.01   0.05
    18   1    -0.05  -0.20   0.10    -0.01  -0.06   0.03    -0.01  -0.11   0.02
    19   1    -0.03   0.22  -0.32    -0.00   0.27  -0.41    -0.03  -0.22   0.37
    20   1     0.34   0.18   0.05     0.44   0.22   0.03    -0.42  -0.20   0.02
    21   1     0.03   0.22   0.32    -0.00  -0.27  -0.41     0.03  -0.22  -0.37
    22   1    -0.34   0.18  -0.05     0.44  -0.22   0.03     0.42  -0.20  -0.02
                     46                     47                     48
                      A                      A                      A
 Frequencies --   1492.9505              1583.6337              1590.2447
 Red. masses --      4.3357                 4.6073                 4.7742
 Frc consts  --      5.6938                 6.8077                 7.1134
 IR Inten    --      0.6993                 4.0022                 0.6242
  Atom  AN      X      Y      Z        X      Y      Z        X      Y      Z
     1   6     0.06  -0.01  -0.12    -0.11   0.08   0.21     0.12  -0.08  -0.24
     2   6     0.01  -0.20  -0.08     0.01  -0.15  -0.08    -0.02   0.11   0.08
     3   6    -0.04   0.19   0.14    -0.03   0.10   0.08     0.03  -0.08  -0.06
     4   6    -0.04  -0.19   0.14    -0.03  -0.10   0.08    -0.03  -0.08   0.06
     5   6     0.01   0.20  -0.08     0.01   0.15  -0.08     0.02   0.11  -0.08
     6   6    -0.08   0.08   0.13     0.09  -0.11  -0.18    -0.10   0.12   0.20
     7   6     0.06   0.01  -0.12    -0.11  -0.08   0.21    -0.12  -0.08   0.24
     8   6    -0.08  -0.08   0.13     0.09   0.11  -0.18     0.10   0.12  -0.20
     9   6     0.00   0.02  -0.02    -0.01   0.01   0.01    -0.01   0.01   0.02
    10   6     0.00  -0.02  -0.02    -0.01  -0.01   0.01     0.01   0.01  -0.02
    11   1     0.01  -0.06  -0.01     0.14   0.24  -0.20    -0.15  -0.25   0.21
    12   1     0.07   0.15  -0.11     0.13   0.27  -0.09    -0.10  -0.24   0.09
    13   1     0.17   0.04  -0.24     0.05   0.04  -0.12    -0.06  -0.03   0.08
    14   1     0.17  -0.04  -0.24     0.05  -0.04  -0.12     0.06  -0.03  -0.08
    15   1     0.07  -0.15  -0.11     0.13  -0.27  -0.09     0.10  -0.24  -0.09
    16   1     0.00  -0.22  -0.02     0.01   0.25  -0.01    -0.03  -0.26   0.01
    17   1     0.01   0.06  -0.01     0.14  -0.24  -0.20     0.15  -0.25  -0.21
    18   1     0.00   0.22  -0.02     0.01  -0.25  -0.01     0.03  -0.26  -0.01
    19   1     0.01   0.14  -0.19     0.04  -0.08  -0.03     0.05  -0.10  -0.02
    20   1     0.30   0.14  -0.05     0.05  -0.15  -0.08     0.01  -0.16  -0.07
    21   1     0.01  -0.14  -0.19     0.04   0.08  -0.03    -0.05  -0.10   0.02
    22   1     0.30  -0.14  -0.05     0.05   0.15  -0.08    -0.01  -0.16   0.07
                     49                     50                     51
                      A                      A                      A
 Frequencies --   2978.4061              2978.5245              3092.8392
 Red. masses --      1.0726                 1.0729                 1.0867
 Frc consts  --      5.6063                 5.6080                 6.1247
 IR Inten    --     73.1483                 9.9040                14.9064
  Atom  AN      X      Y      Z        X      Y      Z        X      Y      Z
     1   6     0.00   0.00  -0.00     0.00   0.00  -0.00    -0.00   0.00  -0.00
     2   6    -0.00  -0.00   0.00    -0.00  -0.00   0.00     0.00  -0.00  -0.00
     3   6    -0.00  -0.00  -0.00    -0.00  -0.00  -0.00    -0.00   0.00  -0.00
     4   6    -0.00   0.00  -0.00     0.00  -0.00   0.00     0.00   0.00   0.00
     5   6    -0.00   0.00   0.00     0.00  -0.00  -0.00    -0.00  -0.00   0.00
     6   6    -0.00   0.00  -0.00    -0.00   0.00  -0.00    -0.00  -0.00   0.00
     7   6     0.00  -0.00  -0.00    -0.00   0.00   0.00     0.00   0.00   0.00
     8   6    -0.00  -0.00  -0.00     0.00   0.00   0.00     0.00  -0.00  -0.00
     9   6    -0.05  -0.02  -0.01     0.05   0.02   0.01     0.02  -0.02   0.05
    10   6    -0.05   0.02  -0.01    -0.05   0.02  -0.01    -0.02  -0.02  -0.05
    11   1    -0.00  -0.00  -0.00    -0.00  -0.00  -0.00     0.00  -0.00   0.00
    12   1     0.00   0.00  -0.00     0.00   0.00  -0.00    -0.00   0.00   0.01
    13   1     0.00   0.01  -0.00     0.00   0.01  -0.00    -0.00  -0.03   0.01
    14   1     0.00  -0.01  -0.00    -0.00   0.01   0.00     0.00  -0.03  -0.01
    15   1     0.00  -0.00  -0.00    -0.00  -0.00   0.00     0.00   0.00  -0.01
    16   1    -0.00  -0.00   0.01    -0.00  -0.00   0.01     0.01   0.01  -0.02
    17   1    -0.00   0.00  -0.00     0.00  -0.00   0.00    -0.00  -0.00  -0.00
    18   1    -0.00   0.00   0.01     0.00  -0.00  -0.01    -0.01   0.01   0.02
    19   1     0.63   0.24   0.20    -0.62  -0.24  -0.19    -0.06  -0.03  -0.01
    20   1    -0.04   0.03  -0.08     0.03  -0.03   0.07    -0.17   0.30  -0.61
    21   1     0.62  -0.24   0.19     0.63  -0.24   0.20     0.06  -0.03   0.01
    22   1    -0.04  -0.03  -0.07    -0.03  -0.03  -0.07     0.17   0.30   0.61
                     52                     53                     54
                      A                      A                      A
 Frequencies --   3094.6400              3188.7220              3190.7249
 Red. masses --      1.0875                 1.0868                 1.0871
 Frc consts  --      6.1361                 6.5106                 6.5206
 IR Inten    --     34.4063                 4.8525                 6.4500
  Atom  AN      X      Y      Z        X      Y      Z        X      Y      Z
     1   6    -0.00  -0.00  -0.00    -0.00   0.04   0.01     0.00  -0.05  -0.01
     2   6    -0.00  -0.00   0.00     0.01  -0.00  -0.02    -0.01   0.00   0.01
     3   6    -0.00   0.00  -0.00    -0.01  -0.02   0.01     0.00   0.01  -0.00
     4   6    -0.00  -0.00  -0.00    -0.01   0.02   0.01    -0.00   0.01   0.00
     5   6    -0.00   0.00   0.00     0.01   0.00  -0.02     0.01   0.00  -0.01
     6   6    -0.00  -0.00   0.00    -0.01  -0.01   0.01     0.01   0.01  -0.02
     7   6    -0.00   0.00  -0.00    -0.00  -0.04   0.01    -0.00  -0.05   0.01
     8   6    -0.00   0.00   0.00    -0.01   0.01   0.02    -0.01   0.01   0.02
     9   6    -0.02   0.02  -0.05     0.00  -0.00  -0.00     0.00  -0.00   0.00
    10   6    -0.02  -0.02  -0.05     0.00   0.00  -0.00    -0.00  -0.00  -0.00
    11   1    -0.00   0.00   0.00     0.02  -0.51  -0.15    -0.02   0.56   0.16
    12   1     0.00  -0.00  -0.00    -0.10   0.02   0.20     0.09  -0.02  -0.17
    13   1     0.00  -0.01   0.00     0.06   0.27  -0.10    -0.03  -0.15   0.06
    14   1     0.00   0.01   0.00     0.06  -0.27  -0.10     0.03  -0.15  -0.05
    15   1     0.00   0.00  -0.00    -0.10  -0.02   0.20    -0.09  -0.02   0.17
    16   1     0.01   0.01  -0.02     0.13   0.15  -0.19    -0.14  -0.17   0.22
    17   1    -0.00  -0.00   0.00     0.02   0.52  -0.15     0.02   0.56  -0.16
    18   1     0.01  -0.01  -0.02     0.13  -0.15  -0.19     0.14  -0.17  -0.22
    19   1     0.07   0.03   0.01    -0.00  -0.00  -0.00    -0.00  -0.00  -0.00
    20   1     0.17  -0.30   0.61    -0.00   0.00   0.00    -0.00   0.00  -0.01
    21   1     0.07  -0.03   0.01    -0.00   0.00  -0.00     0.00  -0.00   0.00
    22   1     0.17   0.30   0.61    -0.00  -0.00   0.00     0.00   0.00   0.01
                     55                     56                     57
                      A                      A                      A
 Frequencies --   3193.9902              3197.9152              3215.1489
 Red. masses --      1.0915                 1.0899                 1.0982
 Frc consts  --      6.5607                 6.5669                 6.6885
 IR Inten    --      0.7795                21.2285                23.1315
  Atom  AN      X      Y      Z        X      Y      Z        X      Y      Z
     1   6     0.00  -0.03  -0.01     0.00  -0.02  -0.00    -0.00   0.02   0.01
     2   6     0.01   0.00  -0.01     0.01   0.00  -0.02     0.01  -0.00  -0.02
     3   6    -0.01  -0.05   0.02    -0.01  -0.05   0.02     0.00   0.01  -0.00
     4   6    -0.01   0.05   0.02     0.01  -0.05  -0.02     0.00  -0.01  -0.00
     5   6     0.01  -0.00  -0.01    -0.01   0.00   0.02     0.01   0.00  -0.02
     6   6     0.01   0.01  -0.01     0.00   0.01  -0.01     0.03   0.03  -0.04
     7   6     0.00   0.03  -0.01    -0.00  -0.02   0.00    -0.00  -0.02   0.01
     8   6     0.01  -0.01  -0.01    -0.00   0.01   0.01     0.03  -0.03  -0.04
     9   6     0.00   0.00  -0.00    -0.00  -0.00   0.00    -0.00   0.00  -0.00
    10   6     0.00  -0.00  -0.00     0.00  -0.00  -0.00    -0.00  -0.00  -0.00
    11   1    -0.01   0.30   0.08    -0.01   0.18   0.05     0.01  -0.23  -0.07
    12   1    -0.07   0.01   0.13    -0.10   0.02   0.19    -0.12   0.03   0.23
    13   1     0.12   0.55  -0.20     0.12   0.58  -0.21    -0.02  -0.08   0.03
    14   1     0.12  -0.55  -0.20    -0.12   0.58   0.21    -0.02   0.09   0.03
    15   1    -0.07  -0.01   0.13     0.10   0.02  -0.19    -0.12  -0.03   0.24
    16   1    -0.07  -0.08   0.10    -0.05  -0.06   0.08    -0.27  -0.31   0.42
    17   1    -0.01  -0.30   0.08     0.01   0.18  -0.05     0.01   0.23  -0.07
    18   1    -0.07   0.08   0.10     0.05  -0.06  -0.08    -0.28   0.32   0.43
    19   1    -0.01  -0.00  -0.00     0.01   0.00   0.00    -0.00  -0.00  -0.00
    20   1     0.00  -0.01   0.01    -0.00   0.01  -0.02     0.01  -0.01   0.02
    21   1    -0.01   0.00  -0.00    -0.01   0.00  -0.00    -0.00   0.00  -0.00
    22   1     0.00   0.01   0.01     0.00   0.01   0.02     0.01   0.01   0.02
                     58                     59                     60
                      A                      A                      A
 Frequencies --   3215.2218              3227.2095              3227.4927
[...]
 .00066855,0.00030945,0.00081780,-0.00903624,0.05204331,-0.00172391,0.0
 0551980,-0.00432878,-0.13038614,0.02571669,-0.27309999,-0.00693840,-0.
 00359660,-0.00599306,0.00012790,-0.00014557,-0.00024316,-0.00040486,0.
 00041153,-0.00020816,-0.00195430,-0.00056344,-0.00085468,-0.00008627,-
 0.00009808,0.00056143,0.00089204,-0.00060521,-0.00064079,-0.00043519,-
 0.00032271,-0.00031665,-0.00250582,0.00134654,0.00108232,0.00049300,-0
 .00046216,-0.00020259,0.14197917,-0.02848498,0.28477657,0.00565040,0.0
 0069861,-0.00034988,0.00282203,-0.00164445,0.00215622,-0.04554764,-0.0
 4697261,-0.03493697,-0.00565325,0.00597965,0.00747839,-0.00095578,-0.0
 0344784,-0.00086838,-0.00243477,0.00192218,-0.00385432,-0.00076841,0.0
 0092107,-0.00136903,-0.00045072,0.00103337,0.00113858,0.00107334,0.000
 52713,0.00077714,-0.00191808,-0.01673939,-0.00182332,0.00050653,-0.000
 07030,0.00007700,-0.00284719,0.00016474,0.00201431,0.04806434,0.000353
 42,-0.00383443,0.00248739,-0.00594815,-0.01326609,-0.01333333,-0.05359
 668,-0.29855537,-0.08687394,-0.00011065,-0.00031009,-0.00010335,0.0000
 0359,0.00014105,-0.00004637,0.00070346,-0.00022269,0.00077032,-0.00003
 103,0.00037577,-0.00003839,-0.00017306,-0.00005370,0.00028742,-0.00005
 546,-0.00011962,-0.00022194,0.00206019,0.00226792,0.00220460,-0.000921
 65,-0.00056652,-0.00053861,0.00029503,0.00064159,0.00032398,0.05835654
 ,0.31245877,-0.00380958,0.00274205,-0.00215481,0.00472745,0.01929356,0
 .00989997,-0.03549021,-0.09480203,-0.07702929,0.00349850,-0.00401977,-
 0.00446635,0.00037226,0.00173839,0.00052606,-0.00305686,-0.00128363,-0
 .00296997,0.00025976,-0.00028996,0.00036936,0.00022916,0.00005176,-0.0
 0058035,-0.00087174,-0.00017471,0.00001672,0.00292692,-0.01756721,-0.0
 0285652,0.00039425,0.00066358,0.00070844,0.00188647,-0.00136215,-0.000
 77326,0.03053988,0.09516321,0.07738177,-0.00076848,-0.00092131,-0.0013
 6907,-0.00095572,0.00344781,-0.00086874,-0.00565333,-0.00597897,0.0074
 7910,-0.04554953,0.04697413,-0.03494365,0.00282202,0.00164482,0.002155
 93,-0.00045078,-0.00103336,0.00113880,0.00565030,-0.00069845,-0.000349
 92,-0.00243480,-0.00192249,-0.00385410,-0.00191838,0.01673927,-0.00182
 504,0.00107332,-0.00052706,0.00077723,0.00011058,-0.00001493,-0.000121
 39,0.00011474,0.00001395,-0.00001544,0.00054659,-0.00023668,-0.0000090
 6,0.04806695,0.00003105,0.00037579,0.00003837,-0.00000357,0.00014092,0
 .00004639,0.00011093,-0.00030976,0.00010306,0.05359807,-0.29853618,0.0
 8689615,0.00594905,-0.01326663,0.01333564,0.00017310,-0.00005373,-0.00
 028746,-0.00035368,-0.00383496,-0.00248721,-0.00070383,-0.00022266,-0.
 00077067,-0.00205998,0.00226974,-0.00220512,0.00005541,-0.00011961,0.0
 0022198,-0.00004876,0.00004935,0.00002025,0.00003708,0.00000662,-0.000
 06260,0.00023670,0.00059089,0.00001661,-0.05835879,0.31243838,0.000259
 80,0.00029001,0.00036939,0.00037224,-0.00173843,0.00052626,0.00349864,
 0.00401948,-0.00446696,-0.03549777,0.09482438,-0.07704720,0.00472721,-
 0.01929121,0.00990044,0.00022918,-0.00005179,-0.00058039,-0.00380958,-
 0.00274195,-0.00215418,-0.00305679,0.00128324,-0.00296995,0.00292678,0
 .01756664,-0.00285812,-0.00087181,0.00017473,0.00001668,-0.00007796,-0
 .00003606,0.00003478,-0.00012411,0.00000167,0.00010139,-0.00000909,-0.
 00001674,-0.00042999,0.03054783,-0.09518676,0.07740077,-0.00059804,-0.
 00062447,-0.00169520,0.00086019,0.00167899,0.00046337,-0.00074235,-0.0
 0072015,0.00145614,0.00253510,0.00133651,-0.00171324,-0.09918276,-0.00
 778683,-0.13197576,-0.00219528,-0.00057659,0.00267815,-0.00401322,-0.0
 0425335,-0.00797430,0.00091478,0.00233022,-0.00127811,0.00500703,0.000
 07018,-0.00370592,0.00000271,-0.00028640,0.00012663,-0.00003264,0.0000
 0966,-0.00003811,-0.00014840,0.00004099,0.00002142,0.00011475,-0.00003
 709,-0.00012411,-0.00284715,-0.00029489,0.00188650,0.10087824,0.000176
 98,-0.00005101,-0.00009097,0.00028258,-0.00021089,0.00022564,-0.000141
 11,-0.00012523,-0.00020770,-0.01383675,0.00505045,-0.02121606,-0.00683
 293,-0.05919273,-0.02626744,-0.00032067,0.00005050,0.00027150,0.008315
 79,0.00845551,0.01936098,0.00233395,-0.00406206,0.00270421,0.00151833,
 -0.00389881,-0.00329486,0.00028398,0.00005937,-0.00031949,0.00003353,0
 .00000561,0.00000942,-0.00004099,-0.00004044,0.00000133,-0.00001394,0.
 00000662,-0.00000167,-0.00016460,0.00064169,0.00136205,0.00905146,0.05
 204953,-0.00008628,0.00009815,0.00056152,-0.00040487,-0.00041160,-0.00
 020819,0.00012799,0.00014561,-0.00024321,-0.00693716,0.00359541,-0.005
 99112,-0.13038542,-0.02574068,-0.27309229,0.00089221,0.00060521,-0.000
 64101,-0.00172445,-0.00552107,-0.00432996,-0.00195453,0.00056365,-0.00
 085504,-0.00250596,-0.00134606,0.00108285,-0.00043526,0.00032268,-0.00
 031665,0.00002101,-0.00002815,0.00001002,0.00002142,-0.00000132,0.0000
 9091,-0.00001545,0.00006261,0.00010139,0.00201434,-0.00032409,-0.00077
 339,0.14197789,0.02851099,0.28476814,-0.00061418,-0.00765254,-0.004909
 96,0.00358639,0.00017522,-0.00503060,-0.00100182,0.00027140,-0.0008181
 4,0.00014168,0.00006491,0.00013584,-0.00004096,0.00008373,-0.00033506,
 -0.10233814,-0.07636072,-0.11092432,0.00034496,-0.00020179,0.00017373,
 0.00000286,-0.00003553,-0.00024418,0.00015299,0.00028384,0.00024111,0.
 00122344,0.00292528,0.00380219,-0.00331192,0.00064023,0.00230283,0.000
 40087,-0.00093734,-0.00043373,0.00124147,-0.00018467,-0.00103126,-0.00
 000665,-0.00002168,-0.00004012,-0.00000297,-0.00014082,0.00017477,0.10
 027478,0.00660923,0.01034246,0.00925766,0.00050119,-0.00052535,0.00251
 664,0.00106093,-0.00576483,0.00069525,0.00032552,-0.00013015,-0.000193
 14,0.00005144,0.00008740,-0.00013096,-0.07605285,-0.13942904,-0.108268
 07,-0.00004771,0.00008865,0.00006212,-0.00008182,-0.00002325,0.0000853
 8,-0.00000447,0.00008770,-0.00003310,-0.01365273,-0.00464801,-0.018138
 26,-0.00012242,0.00029103,-0.00109728,0.00019057,0.00078346,0.00025698
 ,-0.00121959,0.00016394,-0.00111562,0.00004530,0.00004396,-0.00006070,
 -0.00006590,-0.00001916,0.00010480,0.08190144,0.13808038,-0.01004547,-
 0.01736494,-0.00863775,-0.00412820,0.00269607,-0.00170301,0.00059525,0
 .00188588,0.00025561,0.00008212,-0.00002175,-0.00010179,-0.00007118,0.
 00005791,0.00031888,-0.10795913,-0.10450834,-0.18654890,-0.00014025,0.
 00000647,-0.00011609,0.00001309,0.00009566,0.00014958,-0.00006161,-0.0
 0015121,-0.00011429,0.00320886,0.00304278,0.00266262,0.00250549,0.0001
 9251,-0.00067028,-0.00072285,-0.00082423,-0.00018313,-0.00050491,0.000
 10207,0.00101157,-0.00001088,0.00001878,0.00004063,-0.00004471,0.00002
 377,0.00003141,0.11748377,0.11563559,0.19319944,0.00003562,0.00003176,
 0.00021468,0.00007187,-0.00020407,0.00014440,0.00021381,-0.00036951,-0
 .00043459,0.00109658,0.00265479,-0.00300101,0.00257872,0.01100180,0.00
 581909,0.00028446,-0.00003243,-0.00028039,-0.04284883,-0.01191443,-0.0
 1267069,0.00343176,-0.01323755,-0.00217484,0.00622570,0.00008851,-0.00
 703921,0.00005343,0.00001591,0.00001949,-0.00012684,-0.00006377,0.0001
 1249,-0.00003263,-0.00003353,0.00002101,0.00011057,0.00004875,-0.00007
 796,0.00050652,0.00092172,0.00039418,-0.00083334,-0.00066852,0.0004930
 1,-0.00007815,0.00000722,0.00000891,0.03263131,-0.00022480,-0.00012035
 ,-0.00010770,-0.00002242,0.00011513,-0.00029088,-0.00020345,0.00011005
 ,0.00023343,0.00113621,-0.00290421,0.00150607,-0.00431275,-0.01047682,
 -0.00925751,-0.00011351,0.00015765,0.00035319,-0.01040761,-0.31844320,
 -0.07505594,0.00170358,-0.00382385,0.00175310,0.00101747,0.00011279,-0
 .00136715,0.00003501,-0.00006315,0.00001645,0.00006378,0.00017327,-0.0
 0009621,-0.00000967,0.00000561,0.00002815,0.00001492,0.00004935,0.0000
 3605,0.00007032,-0.00056651,-0.00066344,0.00008244,0.00030939,0.000462
 13,0.00009997,0.00000744,-0.00000819,0.01205933,0.33546354,0.00006795,
 -0.00012251,0.00009409,-0.00005004,-0.00011152,0.00004948,0.00022202,0
 .00023378,-0.00011731,-0.00318889,0.00301505,-0.00113163,0.00234179,0.
 01438754,0.00847767,0.00004418,0.00010914,0.00009089,-0.01258707,-0.07
 314610,-0.07450767,0.00035579,-0.02487567,0.00171351,-0.00543332,-0.00
 149626,-0.00124308,-0.00005869,0.00001710,-0.00007861,0.00011248,0.000
 09619,-0.00005566,-0.00003810,-0.00000942,0.00001002,-0.00012139,-0.00
 002025,0.00003478,0.00007698,0.00053873,0.00070843,0.00080893,-0.00081
 782,-0.00020256,-0.00002244,-0.00001491,-0.00000147,0.01527552,0.08278
 163,0.06703373,0.00034494,0.00020180,0.00017371,-0.00004094,-0.0000838
 0,-0.00033497,0.00014171,-0.00006488,0.00013583,-0.00100169,-0.0002713
 6,-0.00081798,0.00358632,-0.00017585,-0.00503070,0.00000287,0.00003551
 ,-0.00024415,-0.00061450,0.00765224,-0.00491097,-0.10234479,0.07635203
 ,-0.11093514,0.00122323,-0.00292472,0.00380193,0.00015301,-0.00028383,
 0.00024112,-0.00007814,-0.00009997,-0.00002243,-0.00000297,0.00014083,
 0.00017474,-0.00000665,0.00002167,-0.00004012,0.00124138,0.00018457,-0
 .00103130,0.00040082,0.00093734,-0.00043383,0.00001453,0.00000681,0.00
 000390,-0.00331186,-0.00064010,0.00230294,0.10028192,0.00004771,0.0000
 8865,-0.00006213,-0.00005144,0.00008739,0.00013097,-0.00032549,-0.0001
 3012,0.00019313,-0.00106077,-0.00576510,-0.00069465,-0.00050157,-0.000
 52591,-0.00251685,0.00008183,-0.00002326,-0.00008537,-0.00661063,0.010
 34329,-0.00925961,0.07604468,-0.13940444,0.10825961,0.01365334,-0.0046
 4626,0.01813893,0.00000446,0.00008770,0.00003309,-0.00000722,0.0000074
 4,0.00001491,0.00006588,-0.00001917,-0.00010478,-0.00004530,0.00004396
 ,0.00006069,0.00121959,0.00016408,0.00111565,-0.00019065,0.00078354,-0
 .00025708,-0.00000681,0.00001093,-0.00000004,0.00012259,0.00029111,0.0
 0109723,-0.08189235,0.13805367,-0.00014025,-0.00000649,-0.00011608,-0.
 00007119,-0.00005785,0.00031884,0.00008213,0.00002175,-0.00010181,0.00
 059538,-0.00188531,0.00025580,-0.00412819,-0.00269617,-0.00170230,0.00
 001308,-0.00009564,0.00014959,-0.01004527,0.01736267,-0.00863827,-0.10
 797021,0.10449992,-0.18656679,0.00320764,-0.00304197,0.00266112,-0.000
 06163,0.00015121,-0.00011431,0.00000891,0.00000819,-0.00000147,-0.0000
 4471,-0.00002376,0.00003141,-0.00001087,-0.00001878,0.00004063,-0.0005
 0502,-0.00010199,0.00101150,-0.00072288,0.00082408,-0.00018315,0.00000
 390,0.00000004,-0.00000428,0.00250553,-0.00019254,-0.00067046,0.117495
 83,-0.11562611,0.19321884,-0.00049429,0.00001362,-0.00043907,-0.000365
 22,0.00154839,-0.00076679,-0.00174444,-0.00128060,0.00058209,-0.020065
 45,-0.00836577,0.00308964,-0.00003091,0.00210996,-0.00072618,-0.000478
 89,-0.00021972,0.00003599,0.00016752,0.00068759,0.00116282,0.00233767,
 -0.00055883,-0.00068869,-0.23402421,-0.07411419,0.06652844,-0.00018986
 ,-0.00033801,0.00027012,-0.00001930,-0.00009032,-0.00000843,0.00020040
 ,-0.00001351,-0.00010929,0.00030718,-0.00003557,-0.00019185,0.00066132
 ,0.00054363,-0.00040952,0.00046535,-0.00007319,-0.00056619,0.00000589,
 -0.00002339,-0.00004616,-0.00020451,-0.00017065,0.00003915,-0.00011307
 ,-0.00063626,-0.00016028,0.26065465,-0.00030034,0.00007069,-0.00033342
 ,-0.00007779,-0.00002449,0.00011532,0.00070901,0.00021470,0.00052739,0
 .00752650,0.00287161,-0.00110204,-0.00010917,-0.00131533,0.00200030,-0
 .00004905,-0.00024478,0.00006539,0.00132984,-0.00271935,0.00036587,-0.
 02855348,-0.01586828,0.00529347,-0.07840899,-0.06470004,0.02425346,0.0
 0029593,-0.00000529,-0.00007816,0.00005213,0.00001811,-0.00001837,0.00
 008493,-0.00003039,0.00008038,-0.00011719,0.00013966,0.00014709,-0.000
 34139,0.00001175,-0.00019229,-0.00022102,-0.00001423,-0.00001811,-0.00
 006643,0.00001433,0.00003981,0.00175311,0.00004594,-0.00144149,0.00114
 755,0.00007941,-0.00007109,0.08343559,0.07632131,-0.00042894,-0.000495
 72,-0.00087077,0.00088969,0.00099461,-0.00011750,-0.00023140,-0.000135
 55,0.00018910,-0.01890410,-0.00825038,0.00312491,0.00040651,-0.0026808
 2,-0.00023087,-0.00048502,-0.00018474,0.00101833,-0.00343479,0.0019431
 0,-0.00298107,0.00274136,0.00353152,0.00022331,0.06330056,0.02116928,-
 0.05954842,0.00023757,-0.00014749,-0.00024240,0.00002719,0.00001334,-0
 .00002835,-0.00020275,0.00002538,0.00038116,-0.00006363,0.00015691,0.0
 0010292,0.00085545,0.00047866,0.00058090,0.00097212,0.00005654,-0.0008
 2148,-0.00008761,0.00000978,0.00006867,0.00031244,-0.00005542,-0.00024
 449,-0.00024985,0.00035231,0.00023310,-0.07064795,-0.02601388,0.067807
 41,-0.00000758,-0.00014880,0.00011807,-0.00106120,-0.00037590,-0.00030
 434,-0.00134088,-0.00087054,-0.00150605,0.00370288,-0.01188422,-0.0164
 2015,-0.00306751,0.00258259,-0.00378014,0.00009954,0.00020120,0.000025
 04,0.00176806,-0.00013079,0.00089889,-0.00251953,-0.00245579,0.0007035
 0,-0.05221635,0.03020255,0.05102577,-0.00033210,0.00017474,0.00022873,
 0.00000789,0.00003388,0.00004120,-0.00026764,-0.00038840,0.00009798,-0
 .00033778,0.00031866,-0.00023962,-0.00017826,0.00028701,0.00051719,-0.
 00051555,-0.00110237,-0.00026190,0.00013018,0.00001020,-0.00004349,0.0
 0020720,-0.00023453,-0.00018055,-0.00001220,0.00007522,0.00003776,-0.0
 0695160,0.01173684,0.02506673,0.06287530,-0.00018011,-0.00026289,-0.00
 034610,-0.00022488,-0.00003584,-0.00032398,0.00029388,0.00065351,0.000
 60907,-0.00398548,0.00355253,0.00673682,0.00259465,-0.00042664,0.00091
 956,-0.00001836,-0.00011642,0.00025437,0.00054450,-0.00606915,0.000386
 52,0.00535063,-0.00934111,-0.02858220,0.02820777,-0.09413583,-0.099897
 40,0.00021976,-0.00008813,-0.00015971,0.00002105,0.00002569,-0.0000094
 6,-0.00031784,-0.00021467,0.00047155,0.00003571,0.00007535,0.00017064,
 -0.00003856,-0.00003808,-0.00034078,0.00022398,0.00044749,-0.00027122,
 -0.00005926,0.00000383,0.00007158,-0.00210851,-0.00048700,-0.00024825,
 -0.00036917,0.00045494,0.00106123,-0.00227417,0.00499100,0.00935667,-0
 .02795917,0.10092971,0.00005334,-0.00026952,-0.00030517,0.00088384,0.0
 0029244,0.00085668,0.00162726,0.00016456,-0.00071735,0.00625573,-0.009
 14682,-0.01424579,-0.00197793,-0.00044480,-0.00300604,0.00045826,-0.00
 001437,0.00066858,0.00021019,0.00204612,-0.00182430,-0.00134384,0.0016
 8020,0.00555716,0.04844803,-0.10026237,-0.24978173,0.00016997,0.000418
 52,-0.00032932,0.00004971,0.00004265,-0.00002357,0.00002304,0.00012978
 ,0.00041075,-0.00053232,0.00046162,0.00050029,-0.00057739,0.00032979,-
 0.00001429,-0.00093909,-0.00097940,0.00021989,-0.00015806,0.00004557,0
 .00011233,0.00028102,-0.00001924,0.00009225,-0.00003287,-0.00073457,-0
 .00000292,0.00322199,-0.00370598,-0.00858403,-0.05605384,0.11003459,0.
 27035402,0.00016764,-0.00068736,0.00116298,-0.00003087,-0.00211008,-0.
 00072592,-0.02006537,0.00836536,0.00308858,-0.00174451,0.00128066,0.00
 058199,-0.00036524,-0.00154847,-0.00076665,0.00233678,0.00055925,-0.00
 068856,-0.00049429,-0.00001369,-0.00043903,-0.00047886,0.00021971,0.00
 003594,-0.00018987,0.00033803,0.00027011,-0.23402975,0.07411617,0.0665
 2082,-0.00020447,0.00017064,0.00003909,0.00046535,0.00007313,-0.000566
 19,0.00066131,-0.00054365,-0.00040948,0.00030719,0.00003556,-0.0001918
 7,0.00020041,0.00001350,-0.00010930,-0.00011305,0.00063624,-0.00016035
 ,-0.00001931,0.00009032,-0.00000844,0.00000590,0.00002338,-0.00004616,
 -0.00009317,0.00011137,-0.00005531,-0.00002508,0.00003322,-0.00011455,
 0.26066080,-0.00133002,-0.00271954,-0.00036584,0.00010925,-0.00131531,
 -0.00200020,-0.00752897,0.00287250,0.00110203,-0.00070908,0.00021464,-
 0.00052741,0.00007788,-0.00002464,-0.00011533,0.02855416,-0.01586831,-
 0.00529168,0.00030032,0.00007077,0.00033332,0.00004901,-0.00024479,-0.
 00006528,-0.00029593,-0.00000527,0.00007815,0.07841069,-0.06469998,-0.
 02425039,-0.00175309,0.00004606,0.00144139,0.00022112,-0.00001423,0.00
 001803,0.00034149,0.00001170,0.00019233,0.00011719,0.00013964,-0.00014
 710,-0.00008496,-0.00003041,-0.00008034,-0.00114758,0.00007936,0.00007
 108,-0.00005212,0.00001811,0.00001836,0.00006642,0.00001433,-0.0000398
 1,-0.00011138,0.00008734,-0.00007471,-0.00006203,0.00005633,-0.0000116
 7,-0.08343751,0.07632149,-0.00343461,-0.00194322,-0.00298091,0.0004063
 7,0.00268100,-0.00023093,-0.01890373,0.00824990,0.00312389,-0.00023136
 ,0.00013558,0.00018914,0.00088969,-0.00099465,-0.00011739,0.00273880,-
 0.00353000,0.00022414,-0.00042894,0.00049563,-0.00087084,-0.00048498,0
 .00018483,0.00101829,0.00023759,0.00014747,-0.00024242,0.06329241,-0.0
 2116631,-0.05954303,0.00031261,0.00005539,-0.00024463,0.00097213,-0.00
 005661,-0.00082147,0.00085542,-0.00047859,0.00058091,-0.00006364,-0.00
 015692,0.00010296,-0.00020274,-0.00002535,0.00038118,-0.00024974,-0.00
 035229,0.00023312,0.00002720,-0.00001334,-0.00002835,-0.00008762,-0.00
 000978,0.00006868,-0.00005530,0.00007469,-0.00004772,-0.00001827,0.000
 04939,-0.00001270,-0.07063937,0.02601039,0.06780133,0.00176808,0.00013
 110,0.00089893,-0.00306732,-0.00258305,-0.00377987,0.00370252,0.011882
 65,-0.01642091,-0.00134095,0.00087039,-0.00150617,-0.00106120,0.000375
 89,-0.00030441,-0.00251950,0.00245606,0.00070245,-0.00000760,0.0001488
 0,0.00011807,0.00009956,-0.00020120,0.00002506,-0.00033211,-0.00017473
 ,0.00022875,-0.05221572,-0.03019741,0.05102756,0.00020716,0.00023453,-
 0.00018058,-0.00051554,0.00110231,-0.00026203,-0.00017824,-0.00028696,
 0.00051723,-0.00033783,-0.00031869,-0.00023963,-0.00026770,0.00038844,
 0.00009796,-0.00001221,-0.00007524,0.00003780,0.00000789,-0.00003388,0
 .00004121,0.00013018,-0.00001021,-0.00004350,-0.00002508,0.00006203,-0
 .00001828,0.00004217,0.00001036,0.00004752,-0.00695154,-0.01173484,0.0
 2506808,0.06287499,-0.00054429,-0.00606946,-0.00038608,-0.00259489,-0.
 00042678,-0.00091996,0.00398619,0.00355318,-0.00673893,-0.00029377,0.0
 0065341,-0.00060924,0.00022494,-0.00003585,0.00032411,-0.00535078,-0.0
 0933858,0.02858354,0.00018015,-0.00026283,0.00034609,0.00001840,-0.000
 11646,-0.00025431,-0.00021975,-0.00008815,0.00015969,-0.02820282,-0.09
 411859,0.09988365,0.00210852,-0.00048692,0.00024837,-0.00022411,0.0004
 4764,0.00027119,0.00003851,-0.00003808,0.00034080,-0.00003579,0.000075
 29,-0.00017061,0.00031785,-0.00021475,-0.00047150,0.00036918,0.0004549
 1,-0.00106127,-0.00002105,0.00002569,0.00000946,0.00005925,0.00000383,
 -0.00007157,-0.00003323,0.00005632,-0.00004940,-0.00001036,0.00002539,
 -0.00005709,0.00227421,0.00499019,-0.00935721,0.02795364,0.10091059,0.
 00021032,-0.00204570,-0.00182405,-0.00197773,0.00044448,-0.00300605,0.
 00625539,0.00914546,-0.01424604,0.00162726,-0.00016460,-0.00071726,0.0
 0088381,-0.00029240,0.00085670,-0.00134333,-0.00167881,0.00555457,0.00
 005334,0.00026952,-0.00030526,0.00045825,0.00001445,0.00066858,0.00017
 000,-0.00041855,-0.00032929,0.04844948,0.10024860,-0.24979973,0.000280
 81,0.00001930,0.00009224,-0.00093909,0.00097938,0.00021975,-0.00057738
 ,-0.00032980,-0.00001426,-0.00053231,-0.00046160,0.00050035,0.00002305
 ,-0.00012975,0.00041074,-0.00003292,0.00073453,-0.00000289,0.00004971,
 -0.00004265,-0.00002356,-0.00015807,-0.00004556,0.00011235,-0.00011455
 ,0.00001167,-0.00001270,0.00004751,0.00005709,0.00007525,0.00322167,0.
 00370467,-0.00858324,-0.05605522,-0.11001973,0.27037381\\0.00066537,0.
 00085295,0.00114866,0.00358622,-0.00098334,-0.00175746,0.01081440,-0.0
 0064405,-0.00784536,-0.01081470,-0.00064300,0.00784511,-0.00358642,-0.
 00098295,0.00175859,0.00280372,0.00033022,-0.00111314,-0.00066498,0.00
 085298,-0.00114790,-0.00280339,0.00033010,0.00111201,-0.00207440,0.000
 30475,0.00140616,0.00207416,0.00030456,-0.00140579,-0.00017833,0.00008
 888,0.00021411,0.00000140,0.00004216,0.00003182,0.00026666,-0.00004514
 ,-0.00019667,-0.00026653,-0.00004546,0.00019675,-0.00000167,0.00004209
 ,-0.00003237,0.00017223,-0.00001422,-0.00001855,0.00017826,0.00008844,
 -0.00021427,-0.00017221,-0.00001430,0.00001853,-0.00036638,0.00000195,
 -0.00053923,0.00037021,0.00006569,0.00024184,0.00036654,0.00000203,0.0
 0053918,-0.00037017,0.00006565,-0.00024202\\\@


 A warm smile is the universal language of kindness.
                             -- William Arthur Ward
 Job cpu time:       0 days  1 hours  4 minutes  8.5 seconds.
 Elapsed time:       0 days  0 hours  0 minutes 41.1 seconds.
 File lengths (MBytes):  RWF=    183 Int=      0 D2E=      0 Chk=     10 Scr=      1
 Normal termination of Gaussian 16 at Mon Jul 28 00:07:40 2025.
