 Entering Gaussian System, Link 0=g16
 Initial command:
 /home/hongchang/data/software/Gaussian/g16/l1.exe "/home/hongchang/data/software/Gaussian/g16/scratch/Gau-1354225.inp" -scrdir="/home/hongchang/data/software/Gaussian/g16/scratch/"
 Entering Link 1 = /home/hongchang/data/software/Gaussian/g16/l1.exe PID=   1354226.
  
 Copyright (c) 1988,1990,1992,1993,1995,1998,2003,2009,2016,
            Gaussian, Inc.  All Rights Reserved.
  
 This is part of the Gaussian(R) 16 program.  It is based on
 the Gaussian(R) 09 system (copyright 2009, Gaussian, Inc.),
 the Gaussian(R) 03 system (copyright 2003, Gaussian, Inc.),
 the Gaussian(R) 98 system (copyright 1998, Gaussian, Inc.),
 the Gaussian(R) 94 system (copyright 1995, Gaussian, Inc.),
 the Gaussian 92(TM) system (copyright 1992, Gaussian, Inc.),
 the Gaussian 90(TM) system (copyright 1990, Gaussian, Inc.),
 the Gaussian 88(TM) system (copyright 1988, Gaussian, Inc.),
 the Gaussian 86(TM) system (copyright 1986, Carnegie Mellon
 University), and the Gaussian 82(TM) system (copyright 1983,
 Carnegie Mellon University). Gaussian is a federally registered
 trademark of Gaussian, Inc.
  
 This software contains proprietary and confidential information,
 including trade secrets, belonging to Gaussian, Inc.
  
 This software is provided under written license and may be
 used, copied, transmitted, or stored only in accord with that
 written license.
  
 The following legend is applicable only to US Government
 contracts under FAR:
  
                    RESTRICTED RIGHTS LEGEND
  
 Use, reproduction and disclosure by the US Government is
 subject to restrictions as set forth in subparagraphs (a)
 and (c) of the Commercial Computer Software - Restricted
 Rights clause in FAR 52.227-19.
  
 Gaussian, Inc.
 340 Quinnipiac St., Bldg. 40, Wallingford CT 06492
  
  
 ---------------------------------------------------------------
 Warning -- This program may not be used in any manner that
 competes with the business of Gaussian, Inc. or will provide
 assistance to any competitor of Gaussian, Inc.  The licensee
 of this program is prohibited from giving any competitor of
 Gaussian, Inc. access to this program.  By using this program,
 the user acknowledges that Gaussian, Inc. is engaged in the
 business of creating and licensing software in the field of
 computational chemistry and represents and warrants to the
 licensee that it is not a competitor of Gaussian, Inc. and that
 it will not use this program in any manner prohibited above.
 ---------------------------------------------------------------
  

 Cite this work as:
 Gaussian 16, Revision A.03,
 M. J. Frisch, G. W. Trucks, H. B. Schlegel, G. E. Scuseria, 
 M. A. Robb, J. R. Cheeseman, G. Scalmani, V. Barone, 
 G. A. Petersson, H. Nakatsuji, X. Li, M. Caricato, A. V. Marenich, 
 J. Bloino, B. G. Janesko, R. Gomperts, B. Mennucci, H. P. Hratchian, 
 J. V. Ortiz, A. F. Izmaylov, J. L. Sonnenberg, D. Williams-Young, 
 F. Ding, F. Lipparini, F. Egidi, J. Goings, B. Peng, A. Petrone, 
 T. Henderson, D. Ranasinghe, V. G. Zakrzewski, J. Gao, N. Rega, 
 G. Zheng, W. Liang, M. Hada, M. Ehara, K. Toyota, R. Fukuda, 
 J. Hasegawa, M. Ishida, T. Nakajima, Y. Honda, O. Kitao, H. Nakai, 
 T. Vreven, K. Throssell, J. A. Montgomery, Jr., J. E. Peralta, 
 F. Ogliaro, M. J. Bearpark, J. J. Heyd, E. N. Brothers, K. N. Kudin, 
 V. N. Staroverov, T. A. Keith, R. Kobayashi, J. Normand, 
 K. Raghavachari, A. P. Rendell, J. C. Burant, S. S. Iyengar, 
 J. Tomasi, M. Cossi, J. M. Millam, M. Klene, C. Adamo, R. Cammi, 
 J. W. Ochterski, R. L. Martin, K. Morokuma, O. Farkas, 
 J. B. Foresman, and D. J. Fox, Gaussian, Inc., Wallingford CT, 2016.
 
 ******************************************
 Gaussian 16:  ES64L-G16RevA.03 25-Dec-2016
                28-Jul-2025 
 ******************************************
 %nprocshared=96
 Will use up to   96 processors via shared memory.
 %mem=600GB
 %chk=01_02_path1_4.chk
 -----------------------------------------------------------
 # freq b3lyp/6-311g(d,p) em=gd3bj scrf(solvent=Cis-Decalin)
 -----------------------------------------------------------
 1/10=4,30=1,38=1/1,3;
 2/12=2,17=6,18=5,40=1/2;
 3/5=4,6=6,7=101,11=2,25=1,30=1,70=2201,71=2,72=99,74=-5,124=41,140=1/1,2,3;
 4//1;
 5/5=2,38=5,53=99,98=1/2;
 8/6=4,10=90,11=11/1;
 11/6=1,8=1,9=11,15=111,16=1/1,2,10;
 10/6=1/2;
 6/7=2,8=2,9=2,10=2,28=1/1;
 7/8=1,10=1,25=1/1,2,3,16;
 1/10=4,30=1/3;
 99//99;
 -------------
 01_02_path1_4
 -------------
 Symbolic Z-matrix:
 Charge =  0 Multiplicity = 1
 C                    -1.3624   -1.16462   0.65758 
 C                    -0.73365  -0.09525   1.3664 
 C                    -0.83975   1.06924   0.60077 
 C                     0.83973   1.06919  -0.60087 
 C                     0.73363  -0.09539  -1.36638 
 C                    -1.92678  -0.69301  -0.48956 
 C                     1.36242  -1.16467  -0.65746 
 C                     1.92682  -0.69294   0.48961 
 C                     1.88492   0.81048   0.46916 
 C                    -1.88493   0.8104   -0.46925 
 H                    -1.32909  -2.20293   0.96157 
 H                    -0.2477   -0.18437   2.32632 
 H                    -0.69177   2.05924   1.01412 
 H                     0.69172   2.05914  -1.01432 
 H                     0.24768  -0.18461  -2.32629 
 H                    -2.4515   -1.27649  -1.23315 
 H                     1.32913  -2.20301  -0.96135 
 H                     2.45156  -1.27633   1.23326 
 H                     2.8506    1.19194   0.10233 
 H                     1.69678   1.28539   1.43275 
 H                    -2.85063   1.19187  -0.10246 
 H                    -1.6968    1.28524  -1.43288 
 

 GradGradGradGradGradGradGradGradGradGradGradGradGradGradGradGradGradGrad
 Berny optimization.
 Initialization pass.
 Trust Radius=3.00D-01 FncErr=1.00D-07 GrdErr=1.00D-07 EigMax=2.50D+02 EigMin=1.00D-04
 Number of steps in this run=      2 maximum allowed number of steps=      2.
 GradGradGradGradGradGradGradGradGradGradGradGradGradGradGradGradGradGrad

                          Input orientation:                          
 ---------------------------------------------------------------------
 Center     Atomic      Atomic             Coordinates (Angstroms)
 Number     Number       Type             X           Y           Z
 ---------------------------------------------------------------------
      1          6           0       -1.362399   -1.164616    0.657577
      2          6           0       -0.733648   -0.095254    1.366402
      3          6           0       -0.839754    1.069244    0.600774
      4          6           0        0.839726    1.069190   -0.600874
      5          6           0        0.733631   -0.095389   -1.366382
      6          6           0       -1.926780   -0.693014   -0.489555
      7          6           0        1.362420   -1.164666   -0.657460
      8          6           0        1.926815   -0.692937    0.489611
      9          6           0        1.884922    0.810478    0.469159
     10          6           0       -1.884932    0.810403   -0.469245
     11          1           0       -1.329091   -2.202929    0.961567
     12          1           0       -0.247696   -0.184371    2.326319
     13          1           0       -0.691767    2.059242    1.014124
     14          1           0        0.691722    2.059142   -1.014325
     15          1           0        0.247677   -0.184609   -2.326288
     16          1           0       -2.451502   -1.276494   -1.233151
     17          1           0        1.329131   -2.203010   -0.961346
     18          1           0        2.451562   -1.276331    1.233256
     19          1           0        2.850602    1.191937    0.102328
     20          1           0        1.696780    1.285394    1.432751
     21          1           0       -2.850626    1.191867   -0.102457
     22          1           0       -1.696796    1.285236   -1.432879
 ---------------------------------------------------------------------
                    Distance matrix (angstroms):
                    1          2          3          4          5
     1  C    0.000000
     2  C    1.428739   0.000000
     3  C    2.294889   1.397677   0.000000
     4  C    3.379784   2.775178   2.065093   0.000000
     5  C    3.103707   3.101776   2.775178   1.397678   0.000000
     6  C    1.362661   2.285926   2.340085   3.281967   2.864222
     7  C    3.025551   3.103733   3.379804   2.294891   1.428740
     8  C    3.327104   2.864271   3.282003   2.340088   2.285927
     9  C    3.805469   2.912440   2.740099   1.518004   2.348463
    10  C    2.333124   2.348461   1.518004   2.740084   2.912419
    11  H    1.082411   2.227271   3.328173   4.225133   3.757112
    12  H    2.233415   1.079598   2.213501   3.364872   3.821905
    13  H    3.312119   2.183508   1.082984   2.435958   3.512976
    14  H    4.172204   3.512971   2.435952   1.082983   2.183507
    15  H    3.529335   3.821903   3.364869   2.213501   1.079598
    16  H    2.184837   3.332270   3.385779   4.090744   3.399681
    17  H    3.308097   3.757140   4.225154   3.328175   2.227272
    18  H    3.858780   3.399740   4.090784   3.385782   3.332271
    19  H    4.859117   4.012679   3.725886   2.133819   2.880258
    20  H    3.995250   2.795992   2.678229   2.217412   3.266399
    21  H    2.888855   2.880247   2.133817   3.725878   4.012659
    22  H    3.237839   3.266402   2.217412   2.678218   2.795983
                    6          7          8          9         10
     6  C    0.000000
     7  C    3.327083   0.000000
     8  C    3.976048   1.362660   0.000000
     9  C    4.208170   2.333125   1.504138   0.000000
    10  C    1.504136   3.805472   4.208189   3.884894   0.000000
    11  H    2.177804   3.308092   3.619909   4.433167   3.381768
    12  H    3.317708   3.529361   2.891476   2.997804   3.388996
    13  H    3.370641   4.172225   3.834915   2.914743   2.276758
    14  H    3.834879   3.312118   3.370640   2.276755   2.914722
    15  H    2.891423   2.233417   3.317708   3.388996   2.997779
    16  H    1.081072   3.858747   4.741108   5.104692   2.293402
    17  H    3.619894   1.082411   2.177802   3.381768   4.433173
    18  H    4.741120   2.184836   1.081072   2.293403   5.104718
    19  H    5.169792   2.888865   2.134507   1.101187   4.785138
    20  H    4.554069   3.237835   2.203684   1.090620   4.083120
    21  H    2.134505   4.859119   5.169814   4.785145   1.101187
    22  H    2.203685   3.995259   4.554085   4.083117   1.090620
                   11         12         13         14         15
    11  H    0.000000
    12  H    2.665809   0.000000
    13  H    4.309878   2.636827   0.000000
    14  H    5.114009   4.132283   2.455330   0.000000
    15  H    4.167710   4.678904   4.132284   2.636824   0.000000
    16  H    2.633415   4.326583   4.390222   4.588487   3.110101
    17  H    3.280814   4.167737   5.114030   4.309877   2.665812
    18  H    3.902017   3.110170   4.588527   4.390221   4.326583
    19  H    5.452819   4.054604   3.759251   2.580644   3.816841
    20  H    4.641800   2.596085   2.545436   2.756267   4.288494
    21  H    3.869348   3.816835   2.580652   3.759242   4.054577
    22  H    4.246866   4.288497   2.756264   2.545415   2.596074
                   16         17         18         19         20
    16  H    0.000000
    17  H    3.901986   0.000000
    18  H    5.488461   2.633413   0.000000
    19  H    5.999080   3.869359   2.744190   0.000000
    20  H    5.556847   4.246861   2.678046   1.763538   0.000000
    21  H    2.744189   5.452820   5.999111   5.704905   4.800470
    22  H    2.678046   4.641814   5.556867   4.800458   4.441643
                   21         22
    21  H    0.000000
    22  H    1.763537   0.000000
 Stoichiometry    C10H12
 Framework group  C1[X(C10H12)]
 Deg. of freedom    60
 Full point group                 C1      NOp   1
 Largest Abelian subgroup         C1      NOp   1
 Largest concise Abelian subgroup C1      NOp   1
                         Standard orientation:                         
 ---------------------------------------------------------------------
 Center     Atomic      Atomic             Coordinates (Angstroms)
 Number     Number       Type             X           Y           Z
 ---------------------------------------------------------------------
      1          6           0        1.365679    1.176656    0.650710
      2          6           0        0.740482    0.107318    1.362708
      3          6           0        0.842749   -1.057204    0.596595
      4          6           0       -0.842728   -1.057182   -0.596627
      5          6           0       -0.740464    0.107373   -1.362693
      6          6           0        1.924306    0.705016   -0.499219
      7          6           0       -1.365692    1.176674   -0.650665
      8          6           0       -1.924337    0.704982    0.499233
      9          6           0       -1.882551   -0.798434    0.478618
     10          6           0        1.882556   -0.798400   -0.478653
     11          1           0        1.333897    2.214978    0.954831
     12          1           0        0.259344    0.196466    2.325044
     13          1           0        0.696831   -2.047189    1.010711
     14          1           0       -0.696799   -2.047148   -1.010784
     15          1           0       -0.259323    0.196561   -2.325024
     16          1           0        2.445300    1.288471   -1.245452
     17          1           0       -1.333922    2.215008   -0.954746
     18          1           0       -2.445351    1.288401    1.245479
     19          1           0       -2.850057   -1.179901    0.116640
     20          1           0       -1.689587   -1.273320    1.441271
     21          1           0        2.850074   -1.179856   -0.116694
     22          1           0        1.689595   -1.273262   -1.441318
 ---------------------------------------------------------------------
 Rotational constants (GHZ):           2.3833912           1.3138318           1.2529127
 Standard basis: 6-311G(d,p) (5D, 7F)
 There are   262 symmetry adapted cartesian basis functions of A   symmetry.
 There are   252 symmetry adapted basis functions of A   symmetry.
   252 basis functions,   416 primitive gaussians,   262 cartesian basis functions
    36 alpha electrons       36 beta electrons
       nuclear repulsion energy       520.1614477022 Hartrees.
 NAtoms=   22 NActive=   22 NUniq=   22 SFac= 1.00D+00 NAtFMM=   60 NAOKFM=F Big=F
 Integral buffers will be    131072 words long.
 Raffenetti 2 integral format.
 Two-electron integral symmetry is turned on.
 Nuclear repulsion after empirical dispersion term =      520.1155662613 Hartrees.
 Force inversion solution in PCM.
 ------------------------------------------------------------------------------
 Polarizable Continuum Model (PCM)
 =================================
 Model                : PCM.
 Atomic radii         : UFF (Universal Force Field).
 Polarization charges : Total charges.
 Charge compensation  : None.
 Solution method      : Matrix inversion.
 Cavity type          : Scaled VdW (van der Waals Surface) (Alpha=1.100).
 Cavity algorithm     : GePol (No added spheres)
                        Default sphere list used, NSphG=   22.
                        Lebedev-Laikov grids with approx.  5.0 points / Ang**2.
                        Smoothing algorithm: York/Karplus (Gamma=1.0000).
                        Polarization charges: spherical gaussians, with
                                              point-specific exponents (IZeta= 3).
                        Self-potential: point-specific (ISelfS= 7).
                        Self-field    : sphere-specific E.n sum rule (ISelfD= 2).
 1st derivatives      : Analytical E(r).r(x)/FMM algorithm (CHGder, D1EAlg=3).
                        Cavity 1st derivative terms included.
 2nd derivatives      : Analytical E(r).r(xy)/FMM algorithm (CHGder, D2EAlg=3).
                        Cavity 2nd derivative terms included.
 Solvent              : Cis-Decalin, Eps=   2.213900 Eps(inf)=   2.193361
 ------------------------------------------------------------------------------
 One-electron integrals computed using PRISM.
 NBasis=   252 RedAO= T EigKep=  5.36D-04  NBF=   252
 NBsUse=   252 1.00D-06 EigRej= -1.00D+00 NBFU=   252
 ExpMin= 1.03D-01 ExpMax= 4.56D+03 ExpMxC= 6.82D+02 IAcc=3 IRadAn=         5 AccDes= 0.00D+00
 Harris functional with IExCor=  402 and IRadAn=       5 diagonalized for initial guess.
 HarFok:  IExCor=  402 AccDes= 0.00D+00 IRadAn=         5 IDoV= 1 UseB2=F ITyADJ=14
 ICtDFT=  3500011 ScaDFX=  1.000000  1.000000  1.000000  1.000000
 FoFCou: FMM=F IPFlag=           0 FMFlag=      100000 FMFlg1=           0
         NFxFlg=           0 DoJE=T BraDBF=F KetDBF=T FulRan=T
         wScrn=  0.000000 ICntrl=       500 IOpCl=  0 I1Cent=   200000004 NGrid=           0
         NMat0=    1 NMatS0=      1 NMatT0=    0 NMatD0=    1 NMtDS0=    0 NMtDT0=    0
 Petite list used in FoFCou.
 Requested convergence on RMS density matrix=1.00D-08 within 128 cycles.
 Requested convergence on MAX density matrix=1.00D-06.
 Requested convergence on             energy=1.00D-06.
 No special actions if energy rises.
 Inv3:  Mode=1 IEnd=     7170348.
 Iteration    1 A*A^-1 deviation from unit magnitude is 3.89D-15 for   1527.
 Iteration    1 A*A^-1 deviation from orthogonality  is 2.38D-15 for   1400    125.
 Iteration    1 A^-1*A deviation from unit magnitude is 4.11D-15 for   1527.
 Iteration    1 A^-1*A deviation from orthogonality  is 1.51D-15 for   1369     91.
 Error on total polarization charges =  0.00628
 SCF Done:  E(RB3LYP) =  -388.320676263     A.U. after   12 cycles
            NFock= 12  Conv=0.38D-08     -V/T= 2.0046
 DoSCS=F DFT=T ScalE2(SS,OS)=  1.000000  1.000000
 Range of M.O.s used for correlation:     1   252
 NBasis=   252 NAE=    36 NBE=    36 NFC=     0 NFV=     0
 NROrb=    252 NOA=    36 NOB=    36 NVA=   216 NVB=   216
 Symmetrizing basis deriv contribution to polar:
 IMax=3 JMax=2 DiffMx= 0.00D+00
 G2DrvN: will do    23 centers at a time, making    1 passes.
 Calling FoFCou, ICntrl=  3107 FMM=F I1Cent=   0 AccDes= 0.00D+00.
 NEqPCM:  Using equilibrium solvation (IEInf=0, Eps=   2.2139, EpsInf=   2.1934)
 G2PCM: DoFxE=T DoFxN=T DoGrad=T DoDP/DQ/DG/TGxP=FFFF NFrqRd=   0 IEInf=0 SqF1=F DoCFld=F IF1Alg=4.
 End of G2Drv F.D. properties file   721 does not exist.
 End of G2Drv F.D. properties file   722 does not exist.
 End of G2Drv F.D. properties file   788 does not exist.
          IDoAtm=1111111111111111111111
 NEqPCM:  Using equilibrium solvation (IEInf=0, Eps=   2.2139, EpsInf=   2.1934)
          Differentiating once with respect to electric field.
                with respect to dipole field.
          Differentiating once with respect to nuclear coordinates.
 Keep R1 ints in memory in canonical form, NReq=612588626.
          There are    69 degrees of freedom in the 1st order CPHF.  IDoFFX=6 NUNeed=     3.
     66 vectors produced by pass  0 Test12= 1.13D-14 1.45D-09 XBig12= 2.39D+02 1.33D+01.
 AX will form    66 AO Fock derivatives at one time.
     66 vectors produced by pass  1 Test12= 1.13D-14 1.45D-09 XBig12= 3.21D+01 1.10D+00.
     66 vectors produced by pass  2 Test12= 1.13D-14 1.45D-09 XBig12= 3.10D-01 1.09D-01.
     66 vectors produced by pass  3 Test12= 1.13D-14 1.45D-09 XBig12= 8.80D-04 5.60D-03.
     66 vectors produced by pass  4 Test12= 1.13D-14 1.45D-09 XBig12= 1.62D-06 2.21D-04.
     47 vectors produced by pass  5 Test12= 1.13D-14 1.45D-09 XBig12= 1.73D-09 4.72D-06.
      7 vectors produced by pass  6 Test12= 1.13D-14 1.45D-09 XBig12= 1.71D-12 2.00D-07.
      3 vectors produced by pass  7 Test12= 1.13D-14 1.45D-09 XBig12= 1.66D-15 4.84D-09.
 InvSVY:  IOpt=1 It=  1 EMax= 5.33D-15
 Solved reduced A of dimension   387 with    69 vectors.
 Isotropic polarizability for W=    0.000000      130.44 Bohr**3.
 End of Minotr F.D. properties file   721 does not exist.
 End of Minotr F.D. properties file   722 does not exist.
 End of Minotr F.D. properties file   788 does not exist.

 **********************************************************************

            Population analysis using the SCF density.

 **********************************************************************

 Orbital symmetries:
       Occupied  (A) (A) (A) (A) (A) (A) (A) (A) (A) (A) (A) (A)
                 (A) (A) (A) (A) (A) (A) (A) (A) (A) (A) (A) (A)
                 (A) (A) (A) (A) (A) (A) (A) (A) (A) (A) (A) (A)
       Virtual   (A) (A) (A) (A) (A) (A) (A) (A) (A) (A) (A) (A)
                 (A) (A) (A) (A) (A) (A) (A) (A) (A) (A) (A) (A)
                 (A) (A) (A) (A) (A) (A) (A) (A) (A) (A) (A) (A)
                 (A) (A) (A) (A) (A) (A) (A) (A) (A) (A) (A) (A)
                 (A) (A) (A) (A) (A) (A) (A) (A) (A) (A) (A) (A)
                 (A) (A) (A) (A) (A) (A) (A) (A) (A) (A) (A) (A)
                 (A) (A) (A) (A) (A) (A) (A) (A) (A) (A) (A) (A)
                 (A) (A) (A) (A) (A) (A) (A) (A) (A) (A) (A) (A)
                 (A) (A) (A) (A) (A) (A) (A) (A) (A) (A) (A) (A)
                 (A) (A) (A) (A) (A) (A) (A) (A) (A) (A) (A) (A)
                 (A) (A) (A) (A) (A) (A) (A) (A) (A) (A) (A) (A)
                 (A) (A) (A) (A) (A) (A) (A) (A) (A) (A) (A) (A)
                 (A) (A) (A) (A) (A) (A) (A) (A) (A) (A) (A) (A)
                 (A) (A) (A) (A) (A) (A) (A) (A) (A) (A) (A) (A)
                 (A) (A) (A) (A) (A) (A) (A) (A) (A) (A) (A) (A)
                 (A) (A) (A) (A) (A) (A) (A) (A) (A) (A) (A) (A)
                 (A) (A) (A) (A) (A) (A) (A) (A) (A) (A) (A) (A)
                 (A) (A) (A) (A) (A) (A) (A) (A) (A) (A) (A) (A)
 The electronic state is 1-A.
 Alpha  occ. eigenvalues --  -10.17567 -10.17567 -10.16901 -10.16901 -10.16320
 Alpha  occ. eigenvalues --  -10.16320 -10.16050 -10.16049 -10.15862 -10.15861
 Alpha  occ. eigenvalues --   -0.86704  -0.84065  -0.71585  -0.70610  -0.69160
 Alpha  occ. eigenvalues --   -0.68548  -0.55656  -0.55055  -0.53191  -0.51663
 Alpha  occ. eigenvalues --   -0.51586  -0.50178  -0.45054  -0.42156  -0.39385
 Alpha  occ. eigenvalues --   -0.38208  -0.37453  -0.37051  -0.36285  -0.36170
 Alpha  occ. eigenvalues --   -0.35670  -0.34547  -0.31707  -0.26135  -0.25404
 Alpha  occ. eigenvalues --   -0.18605
 Alpha virt. eigenvalues --   -0.03416   0.01990   0.03445   0.04707   0.07363
 Alpha virt. eigenvalues --    0.07811   0.07826   0.09602   0.09767   0.10724
 Alpha virt. eigenvalues --    0.11027   0.11991   0.12749   0.15105   0.15106
 Alpha virt. eigenvalues --    0.17186   0.18693   0.19846   0.21870   0.23051
 Alpha virt. eigenvalues --    0.26881   0.27595   0.30671   0.31275   0.31847
 Alpha virt. eigenvalues --    0.32630   0.35461   0.38295   0.38309   0.38993
 Alpha virt. eigenvalues --    0.39683   0.40550   0.41180   0.42193   0.43336
 Alpha virt. eigenvalues --    0.44519   0.44672   0.45893   0.46471   0.49382
 Alpha virt. eigenvalues --    0.49972   0.52208   0.54981   0.55536   0.56315
 Alpha virt. eigenvalues --    0.56431   0.58832   0.59175   0.59854   0.59880
 Alpha virt. eigenvalues --    0.60355   0.61630   0.61990   0.63612   0.64092
 Alpha virt. eigenvalues --    0.64571   0.65584   0.66255   0.68643   0.70125
 Alpha virt. eigenvalues --    0.70368   0.71186   0.71442   0.73944   0.76261
 Alpha virt. eigenvalues --    0.79371   0.80613   0.83437   0.85849   0.87712
 Alpha virt. eigenvalues --    0.88174   0.91438   0.93067   0.98457   0.98875
 Alpha virt. eigenvalues --    1.04282   1.04955   1.05413   1.08772   1.14063
 Alpha virt. eigenvalues --    1.15158   1.16533   1.18770   1.21897   1.22334
 Alpha virt. eigenvalues --    1.25392   1.28995   1.33724   1.38773   1.40851
 Alpha virt. eigenvalues --    1.46775   1.47958   1.48802   1.49829   1.51679
 Alpha virt. eigenvalues --    1.52290   1.52887   1.54489   1.56108   1.57167
 Alpha virt. eigenvalues --    1.58479   1.59416   1.60353   1.60821   1.61297
 Alpha virt. eigenvalues --    1.63928   1.64289   1.66796   1.67678   1.70746
 Alpha virt. eigenvalues --    1.71540   1.73063   1.74475   1.76759   1.77807
 Alpha virt. eigenvalues --    1.78470   1.82225   1.82423   1.82467   1.84144
 Alpha virt. eigenvalues --    1.84851   1.86572   1.87565   1.88104   1.89099
 Alpha virt. eigenvalues --    1.92068   1.92287   1.94480   1.97825   1.98059
 Alpha virt. eigenvalues --    1.99634   2.00006   2.02924   2.04773   2.08812
 Alpha virt. eigenvalues --    2.12809   2.13144   2.15891   2.17505   2.18512
 Alpha virt. eigenvalues --    2.22821   2.23428   2.26806   2.31286   2.33240
 Alpha virt. eigenvalues --    2.34603   2.36779   2.37039   2.39649   2.41834
 Alpha virt. eigenvalues --    2.44530   2.45745   2.49518   2.51148   2.52270
 Alpha virt. eigenvalues --    2.53499   2.59792   2.59977   2.60555   2.62442
 Alpha virt. eigenvalues --    2.62738   2.67675   2.68997   2.70038   2.70752
 Alpha virt. eigenvalues --    2.71217   2.74351   2.74606   2.77817   2.78752
 Alpha virt. eigenvalues --    2.81346   2.84113   2.87777   2.92229   2.92771
 Alpha virt. eigenvalues --    2.92847   2.93748   2.96388   3.00074   3.05275
 Alpha virt. eigenvalues --    3.08502   3.09554   3.11184   3.18361   3.19630
 Alpha virt. eigenvalues --    3.29253   3.33494   3.35209   3.42915   3.43418
 Alpha virt. eigenvalues --    3.46628   3.48346   3.54741   3.59417   3.77362
 Alpha virt. eigenvalues --    3.78433   4.02790   4.03881   4.06215   4.08919
 Alpha virt. eigenvalues --    4.09158   4.11599   4.16250   4.19014   4.51101
 Alpha virt. eigenvalues --    4.53681  23.63060  23.75011  23.88778  23.89720
 Alpha virt. eigenvalues --   23.90175  23.97845  24.12842  24.13486  24.20584
 Alpha virt. eigenvalues --   24.20843
          Condensed to atoms (all electrons):
               1          2          3          4          5          6
     1  C    4.870039   0.457248  -0.077144  -0.008819   0.005374   0.565887
     2  C    0.457248   5.023140   0.509784  -0.053348  -0.049668  -0.089310
     3  C   -0.077144   0.509784   5.210784   0.092966  -0.053348  -0.093703
     4  C   -0.008819  -0.053348   0.092966   5.210784   0.509785  -0.014317
     5  C    0.005374  -0.049668  -0.053348   0.509785   5.023144   0.035336
     6  C    0.565887  -0.089310  -0.093703  -0.014317   0.035336   5.085249
     7  C   -0.014658   0.005374  -0.008818  -0.077143   0.457245  -0.010327
     8  C   -0.010326   0.035333  -0.014316  -0.093703  -0.089309  -0.003008
     9  C    0.000570  -0.012713  -0.034789   0.375818  -0.095523   0.000906
    10  C   -0.090525  -0.095522   0.375816  -0.034789  -0.012714   0.372301
    11  H    0.421180  -0.044654   0.006571  -0.000170   0.000064  -0.045131
    12  H   -0.037506   0.420492  -0.042300  -0.001597   0.000297   0.006283
    13  H    0.007834  -0.036331   0.409503  -0.017192   0.003214   0.006004
    14  H   -0.000100   0.003213  -0.017193   0.409503  -0.036331  -0.000225
    15  H   -0.000384   0.000297  -0.001597  -0.042300   0.420492   0.002544
    16  H   -0.038053   0.008368   0.005186   0.000279  -0.001541   0.417194
    17  H    0.001989   0.000064  -0.000170   0.006571  -0.044654   0.000696
    18  H    0.000106  -0.001540   0.000279   0.005185   0.008368   0.000033
    19  H   -0.000231   0.003258   0.006207  -0.030179  -0.000957  -0.000222
    20  H    0.000821  -0.003658  -0.003671  -0.042331   0.007961   0.000133
    21  H   -0.002191  -0.000957  -0.030179   0.006207   0.003259  -0.034443
    22  H    0.005517   0.007961  -0.042331  -0.003672  -0.003659  -0.036125
               7          8          9         10         11         12
     1  C   -0.014658  -0.010326   0.000570  -0.090525   0.421180  -0.037506
     2  C    0.005374   0.035333  -0.012713  -0.095522  -0.044654   0.420492
     3  C   -0.008818  -0.014316  -0.034789   0.375816   0.006571  -0.042300
     4  C   -0.077143  -0.093703   0.375818  -0.034789  -0.000170  -0.001597
     5  C    0.457245  -0.089309  -0.095523  -0.012714   0.000064   0.000297
     6  C   -0.010327  -0.003008   0.000906   0.372301  -0.045131   0.006283
     7  C    4.870037   0.565891  -0.090525   0.000570   0.001989  -0.000384
     8  C    0.565891   5.085243   0.372301   0.000906   0.000696   0.002545
     9  C   -0.090525   0.372301   4.889985   0.003568  -0.000083  -0.000020
    10  C    0.000570   0.000906   0.003568   4.889988   0.008780   0.007141
    11  H    0.001989   0.000696  -0.000083   0.008780   0.573219  -0.002788
    12  H   -0.000384   0.002545  -0.000020   0.007141  -0.002788   0.553738
    13  H   -0.000100  -0.000225  -0.002704  -0.030912  -0.000283  -0.004120
    14  H    0.007834   0.006004  -0.030911  -0.002704   0.000029  -0.000057
    15  H   -0.037505   0.006283   0.007141  -0.000020  -0.000045   0.000002
    16  H    0.000106   0.000033  -0.000003  -0.038106  -0.005039  -0.000318
    17  H    0.421180  -0.045131   0.008780  -0.000083   0.000132  -0.000045
    18  H   -0.038053   0.417194  -0.038106  -0.000003   0.000019   0.000268
    19  H   -0.002191  -0.034443   0.384974  -0.000238   0.000001   0.000102
    20  H    0.005517  -0.036125   0.408851   0.000513  -0.000013  -0.000051
    21  H   -0.000231  -0.000222  -0.000238   0.384974  -0.000468  -0.000373
    22  H    0.000821   0.000133   0.000513   0.408852  -0.000265  -0.000282
              13         14         15         16         17         18
     1  C    0.007834  -0.000100  -0.000384  -0.038053   0.001989   0.000106
     2  C   -0.036331   0.003213   0.000297   0.008368   0.000064  -0.001540
     3  C    0.409503  -0.017193  -0.001597   0.005186  -0.000170   0.000279
     4  C   -0.017192   0.409503  -0.042300   0.000279   0.006571   0.005185
     5  C    0.003214  -0.036331   0.420492  -0.001541  -0.044654   0.008368
     6  C    0.006004  -0.000225   0.002544   0.417194   0.000696   0.000033
     7  C   -0.000100   0.007834  -0.037505   0.000106   0.421180  -0.038053
     8  C   -0.000225   0.006004   0.006283   0.000033  -0.045131   0.417194
     9  C   -0.002704  -0.030911   0.007141  -0.000003   0.008780  -0.038106
    10  C   -0.030912  -0.002704  -0.000020  -0.038106  -0.000083  -0.000003
    11  H   -0.000283   0.000029  -0.000045  -0.005039   0.000132   0.000019
    12  H   -0.004120  -0.000057   0.000002  -0.000318  -0.000045   0.000268
    13  H    0.547085  -0.002739  -0.000057  -0.000303   0.000029   0.000019
    14  H   -0.002739   0.547084  -0.004120   0.000019  -0.000283  -0.000303
    15  H   -0.000057  -0.004120   0.553736   0.000268  -0.002787  -0.000318
    16  H   -0.000303   0.000019   0.000268   0.559512   0.000019  -0.000000
    17  H    0.000029  -0.000283  -0.002787   0.000019   0.573219  -0.005039
    18  H    0.000019  -0.000303  -0.000318  -0.000000  -0.005039   0.559512
    19  H   -0.000309  -0.001498  -0.000373   0.000001  -0.000468   0.000331
    20  H    0.002030  -0.000822  -0.000282  -0.000005  -0.000265  -0.001898
    21  H   -0.001497  -0.000309   0.000102   0.000331   0.000001   0.000001
    22  H   -0.000822   0.002030  -0.000051  -0.001898  -0.000013  -0.000005
              19         20         21         22
     1  C   -0.000231   0.000821  -0.002191   0.005517
     2  C    0.003258  -0.003658  -0.000957   0.007961
     3  C    0.006207  -0.003671  -0.030179  -0.042331
     4  C   -0.030179  -0.042331   0.006207  -0.003672
     5  C   -0.000957   0.007961   0.003259  -0.003659
     6  C   -0.000222   0.000133  -0.034443  -0.036125
     7  C   -0.002191   0.005517  -0.000231   0.000821
     8  C   -0.034443  -0.036125  -0.000222   0.000133
     9  C    0.384974   0.408851  -0.000238   0.000513
    10  C   -0.000238   0.000513   0.384974   0.408852
    11  H    0.000001  -0.000013  -0.000468  -0.000265
    12  H    0.000102  -0.000051  -0.000373  -0.000282
    13  H   -0.000309   0.002030  -0.001497  -0.000822
    14  H   -0.001498  -0.000822  -0.000309   0.002030
    15  H   -0.000373  -0.000282   0.000102  -0.000051
    16  H    0.000001  -0.000005   0.000331  -0.001898
    17  H   -0.000468  -0.000265   0.000001  -0.000013
    18  H    0.000331  -0.001898   0.000001  -0.000005
    19  H    0.574799  -0.031992   0.000002  -0.000055
    20  H   -0.031992   0.575350  -0.000055  -0.000016
    21  H    0.000002  -0.000055   0.574798  -0.031992
    22  H   -0.000055  -0.000016  -0.031992   0.575350
 Mulliken charges:
               1
     1  C   -0.056627
     2  C   -0.086832
     3  C   -0.197539
     4  C   -0.197539
     5  C   -0.086835
     6  C   -0.165756
     7  C   -0.056627
     8  C   -0.165754
     9  C   -0.147792
    10  C   -0.147792
    11  H    0.086259
    12  H    0.098973
    13  H    0.121876
    14  H    0.121877
    15  H    0.098974
    16  H    0.093948
    17  H    0.086259
    18  H    0.093948
    19  H    0.133480
    20  H    0.120009
    21  H    0.133480
    22  H    0.120009
 Sum of Mulliken charges =  -0.00000
 Mulliken charges with hydrogens summed into heavy atoms:
               1
     1  C    0.029632
     2  C    0.012141
     3  C   -0.075663
     4  C   -0.075662
     5  C    0.012139
     6  C   -0.071808
     7  C    0.029632
     8  C   -0.071806
     9  C    0.105696
    10  C    0.105697
 APT charges:
               1
     1  C   -0.012620
     2  C   -0.138014
     3  C    0.078216
     4  C    0.078208
     5  C   -0.138008
     6  C   -0.042928
     7  C   -0.012618
     8  C   -0.042935
     9  C    0.008419
    10  C    0.008417
    11  H    0.041257
    12  H    0.049041
    13  H    0.009765
    14  H    0.009765
    15  H    0.049040
    16  H    0.023204
    17  H    0.041256
    18  H    0.023206
    19  H   -0.023639
    20  H    0.007303
    21  H   -0.023639
    22  H    0.007303
 Sum of APT charges =   0.00000
 APT charges with hydrogens summed into heavy atoms:
               1
     1  C    0.028636
     2  C   -0.088973
     3  C    0.087981
     4  C    0.087973
     5  C   -0.088967
     6  C   -0.019724
     7  C    0.028638
     8  C   -0.019729
     9  C   -0.007917
    10  C   -0.007919
 Electronic spatial extent (au):  <R**2>=           1182.5021
 Charge=             -0.0000 electrons
 Dipole moment (field-independent basis, Debye):
    X=              0.0000    Y=             -0.6009    Z=             -0.0000  Tot=              0.6009
 Quadrupole moment (field-independent basis, Debye-Ang):
   XX=            -62.8785   YY=            -56.8871   ZZ=            -59.7476
   XY=              0.0000   XZ=             -4.1371   YZ=              0.0000
 Traceless Quadrupole moment (field-independent basis, Debye-Ang):
   XX=             -3.0408   YY=              2.9507   ZZ=              0.0901
   XY=              0.0000   XZ=             -4.1371   YZ=              0.0000
 Octapole moment (field-independent basis, Debye-Ang**2):
  XXX=             -0.0001  YYY=              1.6930  ZZZ=              0.0001  XYY=             -0.0000
  XXY=             -2.8125  XXZ=             -0.0000  XZZ=              0.0000  YZZ=              1.3121
  YYZ=             -0.0001  XYZ=             -0.8399
 Hexadecapole moment (field-independent basis, Debye-Ang**3):
 XXXX=           -907.6982 YYYY=           -389.3402 ZZZZ=           -349.4326 XXXY=              0.0001
 XXXZ=            -27.0235 YYYX=             -0.0001 YYYZ=              0.0001 ZZZX=            -18.6191
 ZZZY=              0.0000 XXYY=           -212.0991 XXZZ=           -214.9838 YYZZ=           -123.4273
 XXYZ=              0.0004 YYXZ=             -1.7353 ZZXY=              0.0003
 N-N= 5.201155662613D+02 E-N=-1.940899723514D+03  KE= 3.865376824494D+02
  Exact polarizability: 154.906   0.000 119.377  -5.359  -0.000 117.032
 Approx polarizability: 227.649   0.001 176.580  -4.476  -0.001 193.381
 D2PCM: PCM CHGder 2nd derivatives, FixD1E=F FixD2E=F DoIter=F DoCFld=F I1PDM=0
 Calling FoFJK, ICntrl=    100127 FMM=F ISym2X=0 I1Cent= 0 IOpClX= 0 NMat=1 NMatS=1 NMatT=0.
 Full mass-weighted force constant matrix:
 Low frequencies --- -386.6979  -37.5709  -37.1769  -11.9384    0.0002    0.0006
 Low frequencies ---    0.0007  125.7649  129.9267
 ******    1 imaginary frequencies (negative Signs) ****** 
 Diagonal vibrational polarizability:
        7.9387303       2.2925041       6.1121886
 Harmonic frequencies (cm**-1), IR intensities (KM/Mole), Raman scattering
 activities (A**4/AMU), depolarization ratios for plane and unpolarized
 incident light, reduced masses (AMU), force constants (mDyne/A),
 and normal coordinates:
                      1                      2                      3
                      A                      A                      A
 Frequencies --   -386.6979               125.7286               129.8051
 Red. masses --      9.0789                 4.3602                 3.3058
 Frc consts  --      0.7999                 0.0406                 0.0328
 IR Inten    --      0.3223                 0.6335                 0.0544
  Atom  AN      X      Y      Z        X      Y      Z        X      Y      Z
     1   6     0.02   0.04  -0.05     0.04   0.06   0.01     0.07   0.03  -0.13
     2   6     0.12  -0.06   0.05    -0.18   0.09  -0.10    -0.01   0.14  -0.04
     3   6     0.45  -0.02   0.35    -0.12   0.08  -0.08    -0.06   0.06   0.07
     4   6    -0.45  -0.02  -0.35    -0.12  -0.08  -0.08     0.06   0.06  -0.07
     5   6    -0.12  -0.06  -0.05    -0.18  -0.09  -0.10     0.01   0.14   0.04
     6   6     0.10   0.02   0.04     0.22   0.04   0.13     0.09  -0.12  -0.06
     7   6    -0.02   0.04   0.05     0.04  -0.06   0.01    -0.07   0.03   0.13
     8   6    -0.10   0.02  -0.04     0.22  -0.04   0.13    -0.09  -0.12   0.06
     9   6    -0.05   0.02  -0.04     0.02  -0.04   0.03    -0.00  -0.11  -0.09
    10   6     0.05   0.02   0.04     0.02   0.04   0.03     0.00  -0.11   0.09
    11   1    -0.09   0.04  -0.09     0.09   0.06   0.03     0.13   0.07  -0.24
    12   1    -0.03   0.02  -0.03    -0.20   0.09  -0.11    -0.03   0.26  -0.06
    13   1     0.03  -0.06   0.06    -0.14   0.09  -0.07    -0.14   0.11   0.16
    14   1    -0.03  -0.06  -0.06    -0.14  -0.09  -0.07     0.14   0.11  -0.16
    15   1     0.03   0.02   0.03    -0.20  -0.09  -0.11     0.03   0.26   0.06
    16   1     0.07  -0.00   0.00     0.38   0.01   0.22     0.16  -0.23  -0.10
    17   1     0.09   0.04   0.09     0.09  -0.06   0.03    -0.13   0.07   0.24
    18   1    -0.07  -0.00  -0.00     0.38  -0.01   0.22    -0.16  -0.23   0.10
    19   1    -0.15   0.03   0.21    -0.06   0.12   0.09     0.04  -0.13  -0.16
    20   1     0.15   0.01  -0.08     0.04  -0.14  -0.02    -0.01  -0.19  -0.13
    21   1     0.15   0.03  -0.21    -0.06  -0.12   0.09    -0.04  -0.13   0.16
    22   1    -0.15   0.01   0.08     0.04   0.14  -0.02     0.01  -0.19   0.13
                      4                      5                      6
                      A                      A                      A
 Frequencies --    177.9371               256.0150               306.3895
 Red. masses --      4.0161                 3.3492                 3.6213
 Frc consts  --      0.0749                 0.1293                 0.2003
 IR Inten    --      0.5051                 0.0624                 0.1115
  Atom  AN      X      Y      Z        X      Y      Z        X      Y      Z
     1   6     0.22  -0.02   0.10     0.16   0.06   0.06    -0.11   0.01  -0.11
     2   6     0.10  -0.02   0.00     0.08   0.09   0.05    -0.06  -0.03  -0.14
     3   6    -0.01   0.02  -0.09    -0.06   0.09   0.01     0.06  -0.03  -0.12
     4   6     0.01   0.02   0.09    -0.06  -0.09   0.01    -0.06  -0.03   0.12
     5   6    -0.10  -0.02  -0.00     0.08  -0.09   0.05     0.06  -0.03   0.14
     6   6     0.22   0.01   0.09    -0.03   0.06  -0.03     0.13   0.02  -0.00
     7   6    -0.22  -0.02  -0.10     0.16  -0.06   0.06     0.11   0.01   0.11
     8   6    -0.22   0.01  -0.09    -0.03  -0.06  -0.03    -0.13   0.02   0.00
     9   6    -0.03   0.02   0.05    -0.16  -0.06  -0.09    -0.18   0.02   0.01
    10   6     0.03   0.02  -0.05    -0.16   0.06  -0.09     0.18   0.02  -0.01
    11   1     0.34  -0.05   0.20     0.35   0.04   0.14    -0.26   0.02  -0.16
    12   1     0.07  -0.04  -0.01     0.19   0.08   0.10    -0.19  -0.03  -0.20
    13   1    -0.02   0.01  -0.11    -0.04   0.10   0.04     0.13  -0.04  -0.10
    14   1     0.02   0.01   0.11    -0.04  -0.10   0.04    -0.13  -0.04   0.10
    15   1    -0.07  -0.04   0.01     0.19  -0.08   0.10     0.19  -0.03   0.20
    16   1     0.32   0.01   0.16    -0.04   0.04  -0.05     0.19   0.05   0.06
    17   1    -0.34  -0.05  -0.20     0.35  -0.04   0.14     0.26   0.02   0.16
    18   1    -0.32   0.01  -0.16    -0.04  -0.04  -0.05    -0.19   0.05  -0.06
    19   1     0.02  -0.15   0.08    -0.14   0.02  -0.22    -0.14   0.03  -0.11
    20   1     0.01   0.14   0.11    -0.30  -0.11  -0.09    -0.31   0.03   0.04
    21   1    -0.02  -0.15  -0.08    -0.14  -0.02  -0.22     0.14   0.03   0.11
    22   1    -0.01   0.14  -0.11    -0.30   0.11  -0.09     0.31   0.03  -0.04
                      7                      8                      9
                      A                      A                      A
 Frequencies --    416.8786               445.1284               556.0799
 Red. masses --      1.9719                 1.8093                 2.7082
 Frc consts  --      0.2019                 0.2112                 0.4934
 IR Inten    --      0.0987                 0.5507                 1.5357
  Atom  AN      X      Y      Z        X      Y      Z        X      Y      Z
     1   6    -0.06   0.00  -0.02     0.08  -0.01   0.04    -0.12   0.04  -0.06
     2   6    -0.10   0.01  -0.04     0.01   0.00  -0.02     0.16  -0.03   0.10
     3   6    -0.00   0.01   0.02    -0.08   0.02  -0.07    -0.07   0.02  -0.02
     4   6     0.00   0.01  -0.02    -0.08  -0.02  -0.07     0.07   0.02   0.02
     5   6     0.10   0.01   0.04     0.01  -0.00  -0.02    -0.16  -0.03  -0.10
     6   6     0.06  -0.01   0.05    -0.08   0.02  -0.06     0.08  -0.01   0.07
     7   6     0.06   0.00   0.02     0.08   0.01   0.04     0.12   0.04   0.06
     8   6    -0.06  -0.01  -0.05    -0.08  -0.02  -0.06    -0.08  -0.01  -0.07
     9   6     0.11  -0.01   0.08     0.05  -0.02   0.07     0.01  -0.01  -0.02
    10   6    -0.11  -0.01  -0.08     0.05   0.02   0.07    -0.01  -0.01   0.02
    11   1    -0.08   0.01  -0.04     0.19  -0.03   0.12    -0.36   0.07  -0.21
    12   1    -0.21   0.05  -0.09    -0.02   0.01  -0.03     0.35  -0.06   0.20
    13   1    -0.06   0.00  -0.02    -0.13   0.02  -0.09    -0.01   0.01  -0.00
    14   1     0.06   0.00   0.02    -0.13  -0.02  -0.09     0.01   0.01   0.00
    15   1     0.21   0.05   0.09    -0.02  -0.01  -0.03    -0.35  -0.06  -0.20
    16   1     0.13  -0.02   0.10    -0.08   0.01  -0.06    -0.05  -0.01  -0.02
    17   1     0.08   0.01   0.04     0.19   0.03   0.12     0.36   0.07   0.21
    18   1    -0.13  -0.02  -0.10    -0.08  -0.01  -0.06     0.05  -0.01   0.02
    19   1     0.10  -0.23   0.35     0.02  -0.24   0.39     0.08  -0.20  -0.00
    20   1     0.37   0.16   0.11     0.35   0.18   0.10     0.06   0.13   0.04
    21   1    -0.10  -0.23  -0.35     0.02   0.24   0.39    -0.08  -0.20   0.00
    22   1    -0.37   0.16  -0.11     0.35  -0.18   0.10    -0.06   0.13  -0.04
                     10                     11                     12
                      A                      A                      A
 Frequencies --    588.2485               706.0627               706.4988
 Red. masses --      2.4817                 1.2699                 1.2000
 Frc consts  --      0.5060                 0.3730                 0.3529
 IR Inten    --      4.1196                 1.2438                80.6639
  Atom  AN      X      Y      Z        X      Y      Z        X      Y      Z
     1   6    -0.08   0.04  -0.06     0.05   0.01   0.05    -0.05  -0.01  -0.04
     2   6     0.15  -0.03   0.06    -0.01   0.02   0.00     0.01  -0.01   0.00
     3   6    -0.12   0.03  -0.07     0.00   0.01  -0.01     0.02  -0.01   0.02
     4   6    -0.12  -0.03  -0.07    -0.00   0.01   0.01     0.02   0.01   0.02
     5   6     0.15   0.03   0.06     0.01   0.02  -0.00     0.01   0.01   0.00
     6   6     0.07   0.01   0.04     0.01  -0.02   0.03    -0.01   0.01  -0.04
     7   6    -0.08  -0.04  -0.06    -0.05   0.01  -0.05    -0.05   0.01  -0.04
     8   6     0.07  -0.01   0.04    -0.01  -0.02  -0.03    -0.01  -0.01  -0.04
     9   6    -0.02  -0.01   0.03    -0.06  -0.03   0.01    -0.04  -0.02  -0.00
    10   6    -0.02   0.01   0.03     0.06  -0.03  -0.01    -0.04   0.02  -0.00
    11   1    -0.26   0.06  -0.16    -0.18   0.05  -0.12     0.21  -0.05   0.13
    12   1     0.44  -0.09   0.22    -0.16   0.02  -0.07     0.15  -0.02   0.08
    13   1    -0.10   0.02  -0.08     0.01   0.03   0.03     0.04  -0.03  -0.01
    14   1    -0.10  -0.02  -0.08    -0.01   0.03  -0.03     0.04   0.03  -0.01
    15   1     0.44   0.09   0.22     0.16   0.02   0.07     0.15   0.02   0.08
    16   1    -0.03  -0.00  -0.04    -0.52   0.04  -0.28     0.52  -0.04   0.30
    17   1    -0.26  -0.06  -0.16     0.18   0.05   0.12     0.21   0.05   0.13
    18   1    -0.03   0.00  -0.04     0.52   0.04   0.28     0.52   0.04   0.29
    19   1    -0.12   0.10   0.19    -0.05  -0.16   0.11    -0.01  -0.14   0.06
    20   1     0.11  -0.06  -0.03     0.06   0.09   0.04     0.04   0.09   0.04
    21   1    -0.12  -0.10   0.19     0.05  -0.16  -0.11    -0.01   0.14   0.06
    22   1     0.11   0.06  -0.03    -0.06   0.09  -0.04     0.04  -0.09   0.04
                     13                     14                     15
                      A                      A                      A
 Frequencies --    769.3065               771.6470               801.2166
 Red. masses --      1.3745                 1.2901                 3.2828
 Frc consts  --      0.4793                 0.4526                 1.2416
 IR Inten    --      0.4309                87.3606                 0.0127
  Atom  AN      X      Y      Z        X      Y      Z        X      Y      Z
     1   6     0.01  -0.03  -0.02     0.01  -0.00   0.01     0.05   0.04  -0.03
     2   6     0.06  -0.05   0.04    -0.10   0.01  -0.04    -0.00  -0.05  -0.14
     3   6    -0.03   0.01   0.00     0.02   0.00   0.00    -0.04  -0.14   0.04
     4   6     0.03   0.01  -0.00     0.02  -0.00   0.00     0.04  -0.14  -0.04
     5   6    -0.06  -0.05  -0.05    -0.10  -0.01  -0.04     0.00  -0.05   0.14
     6   6     0.01   0.03  -0.04     0.00  -0.02   0.02     0.09   0.07   0.00
     7   6    -0.01  -0.03   0.02     0.01   0.00   0.01    -0.05   0.04   0.03
     8   6    -0.01   0.03   0.04     0.00   0.02   0.02    -0.09   0.07  -0.00
     9   6     0.04   0.03  -0.02     0.01   0.01  -0.01     0.15   0.08  -0.10
    10   6    -0.04   0.03   0.02     0.01  -0.01  -0.01    -0.15   0.08   0.10
    11   1    -0.12  -0.03  -0.05     0.13  -0.01   0.04    -0.11  -0.00   0.09
    12   1    -0.47   0.14  -0.24     0.50  -0.20   0.27     0.17  -0.02  -0.06
    13   1    -0.29  -0.04  -0.24     0.19   0.03   0.14     0.17  -0.13   0.15
    14   1     0.29  -0.04   0.24     0.19  -0.03   0.14    -0.17  -0.13  -0.15
    15   1     0.47   0.14   0.24     0.50   0.20   0.27    -0.17  -0.02   0.06
    16   1     0.01   0.02  -0.04    -0.18   0.01  -0.09    -0.24  -0.06  -0.33
    17   1     0.12  -0.03   0.05     0.13   0.01   0.04     0.11  -0.00  -0.09
    18   1    -0.01   0.02   0.04    -0.18  -0.01  -0.09     0.24  -0.06   0.33
    19   1     0.05   0.06  -0.08    -0.00  -0.01   0.04     0.19   0.07  -0.22
    20   1    -0.02  -0.04  -0.05     0.06   0.03  -0.02    -0.02   0.11  -0.06
    21   1    -0.05   0.06   0.08    -0.00   0.01   0.04    -0.19   0.07   0.22
    22   1     0.02  -0.04   0.05     0.06  -0.03  -0.02     0.02   0.11   0.06
                     16                     17                     18
                      A                      A                      A
 Frequencies --    818.5915               827.4403               836.6164
 Red. masses --      4.2991                 5.2095                 3.8172
 Frc consts  --      1.6973                 2.1015                 1.5741
 IR Inten    --      0.2774                25.1846                 1.9861
  Atom  AN      X      Y      Z        X      Y      Z        X      Y      Z
     1   6    -0.07   0.02   0.05     0.01  -0.25  -0.07    -0.01   0.20   0.06
     2   6    -0.00   0.08   0.12    -0.12  -0.01   0.21     0.15   0.01  -0.12
     3   6     0.02   0.18  -0.10    -0.04   0.11   0.06     0.02  -0.08  -0.06
     4   6     0.02  -0.18  -0.10    -0.04  -0.11   0.06    -0.02  -0.08   0.06
     5   6    -0.00  -0.08   0.12    -0.12   0.01   0.21    -0.15   0.01   0.12
     6   6    -0.11  -0.12   0.05     0.11   0.02  -0.13    -0.12  -0.01   0.09
     7   6    -0.07  -0.02   0.05     0.01   0.25  -0.07     0.01   0.20  -0.06
     8   6    -0.11   0.12   0.05     0.11  -0.02  -0.13     0.12  -0.01  -0.09
     9   6     0.14   0.12  -0.12     0.05  -0.13  -0.05     0.01  -0.12  -0.03
    10   6     0.14  -0.12  -0.12     0.05   0.13  -0.05    -0.01  -0.12   0.03
    11   1     0.20   0.07  -0.09    -0.04  -0.21  -0.21     0.00   0.18   0.12
    12   1    -0.06  -0.09   0.10    -0.05   0.18   0.23    -0.28  -0.02  -0.33
    13   1    -0.15   0.22  -0.07     0.04  -0.01  -0.20    -0.09   0.01   0.11
    14   1    -0.15  -0.22  -0.07     0.04   0.01  -0.20     0.09   0.01  -0.11
    15   1    -0.06   0.09   0.10    -0.05  -0.18   0.23     0.28  -0.02   0.33
    16   1     0.13   0.01   0.32    -0.12   0.26  -0.10     0.20  -0.20   0.17
    17   1     0.20  -0.07  -0.09    -0.04   0.21  -0.21    -0.00   0.18  -0.12
    18   1     0.13  -0.01   0.32    -0.12  -0.26  -0.10    -0.20  -0.20  -0.17
    19   1     0.13   0.13  -0.13    -0.01  -0.04   0.03    -0.06  -0.03   0.09
    20   1     0.07   0.09  -0.13     0.00   0.03   0.04     0.01   0.01   0.03
    21   1     0.13  -0.13  -0.13    -0.01   0.04   0.03     0.06  -0.03  -0.09
    22   1     0.07  -0.09  -0.13     0.00  -0.03   0.04    -0.01   0.01  -0.03
                     19                     20                     21
                      A                      A                      A
 Frequencies --    890.1660               910.9124               920.1752
 Red. masses --      1.8554                 1.7197                 1.3834
 Frc consts  --      0.8662                 0.8407                 0.6901
 IR Inten    --     15.2847                12.4626                 1.0324
  Atom  AN      X      Y      Z        X      Y      Z        X      Y      Z
     1   6     0.01  -0.03  -0.01    -0.01  -0.01   0.01    -0.02  -0.01   0.00
     2   6     0.03   0.02   0.03     0.02   0.01   0.02     0.03   0.03   0.06
     3   6    -0.09  -0.09   0.05     0.06   0.04  -0.04     0.01  -0.01  -0.01
     4   6     0.09  -0.09  -0.05     0.06  -0.04  -0.04    -0.01  -0.01   0.01
     5   6    -0.03   0.02  -0.03     0.02  -0.01   0.02    -0.03   0.03  -0.06
     6   6    -0.01   0.05  -0.05     0.03  -0.08   0.05     0.01  -0.07   0.03
     7   6    -0.01  -0.03   0.01    -0.01   0.01   0.01     0.02  -0.01  -0.00
     8   6     0.01   0.05   0.05     0.03   0.08   0.05    -0.01  -0.07  -0.03
     9   6    -0.09   0.02  -0.03    -0.11  -0.04  -0.04     0.04   0.04   0.04
    10   6     0.09   0.02   0.03    -0.11   0.04  -0.04    -0.04   0.04  -0.04
    11   1    -0.02  -0.06   0.07    -0.03   0.03  -0.12     0.08   0.01  -0.08
    12   1    -0.06   0.30  -0.04    -0.21  -0.03  -0.09    -0.25   0.16  -0.09
    13   1     0.14  -0.05   0.27     0.41   0.00   0.00     0.53  -0.02   0.17
    14   1    -0.14  -0.05  -0.27     0.41  -0.00   0.00    -0.53  -0.02  -0.17
    15   1     0.06   0.30   0.04    -0.21   0.03  -0.09     0.25   0.16   0.09
    16   1     0.15   0.09   0.08    -0.04  -0.14  -0.04    -0.01  -0.08   0.01
    17   1     0.02  -0.06  -0.07    -0.03  -0.03  -0.12    -0.08   0.01   0.08
    18   1    -0.15   0.09  -0.08    -0.04   0.14  -0.04     0.01  -0.08  -0.01
    19   1    -0.18  -0.08   0.33    -0.19  -0.14   0.31     0.06   0.12  -0.12
    20   1     0.19   0.22   0.01     0.22   0.10  -0.04    -0.15  -0.00   0.05
    21   1     0.18  -0.08  -0.33    -0.19   0.14   0.31    -0.06   0.12   0.12
    22   1    -0.19   0.22  -0.01     0.22  -0.10  -0.04     0.15  -0.00  -0.05
                     22                     23                     24
                      A                      A                      A
 Frequencies --    948.2979               949.4673               956.1769
 Red. masses --      1.4547                 1.6363                 1.4168
 Frc consts  --      0.7707                 0.8691                 0.7632
 IR Inten    --      1.5588                 4.4636                 8.9907
  Atom  AN      X      Y      Z        X      Y      Z        X      Y      Z
     1   6     0.09  -0.01   0.03    -0.07  -0.01  -0.01    -0.06   0.02  -0.06
     2   6    -0.02   0.00  -0.00     0.04   0.01  -0.01     0.01  -0.02   0.02
     3   6     0.02   0.00  -0.03    -0.03  -0.02   0.04     0.01   0.00  -0.03
     4   6    -0.02   0.00   0.03    -0.03   0.02   0.04     0.01  -0.00  -0.03
     5   6     0.02   0.00   0.00     0.04  -0.01  -0.01     0.01   0.02   0.02
     6   6    -0.05  -0.04  -0.02     0.06   0.06   0.01     0.01  -0.05   0.02
     7   6    -0.09  -0.01  -0.03    -0.07   0.01  -0.01    -0.06  -0.02  -0.06
     8   6     0.05  -0.04   0.02     0.06  -0.06   0.01     0.01   0.05   0.02
     9   6     0.01   0.05  -0.05     0.01   0.07  -0.08     0.01  -0.05   0.06
    10   6    -0.01   0.05   0.05     0.01  -0.07  -0.08     0.01   0.05   0.06
    11   1    -0.43   0.08  -0.35     0.23  -0.09   0.31     0.51  -0.04   0.20
    12   1     0.08  -0.06   0.05    -0.12   0.14  -0.10    -0.08  -0.00  -0.02
    13   1     0.09  -0.04  -0.12     0.05   0.06   0.27    -0.00  -0.04  -0.16
    14   1    -0.09  -0.04   0.12     0.05  -0.06   0.27    -0.00   0.04  -0.16
    15   1    -0.08  -0.06  -0.05    -0.12  -0.14  -0.10    -0.08   0.00  -0.02
    16   1     0.26  -0.18   0.09    -0.20   0.27  -0.01    -0.17  -0.17  -0.19
    17   1     0.43   0.08   0.35     0.23   0.09   0.31     0.51   0.04   0.20
    18   1    -0.26  -0.18  -0.09    -0.20  -0.27  -0.01    -0.17   0.17  -0.19
    19   1    -0.02   0.04   0.06    -0.06   0.05   0.13     0.03   0.03  -0.09
    20   1     0.08   0.12  -0.02     0.15   0.18  -0.05    -0.10  -0.19   0.01
    21   1     0.02   0.04  -0.06    -0.06  -0.05   0.13     0.03  -0.03  -0.09
    22   1    -0.08   0.12   0.02     0.15  -0.18  -0.05    -0.10   0.19   0.01
                     25                     26                     27
                      A                      A                      A
 Frequencies --    962.2649               982.8469               986.7941
 Red. masses --      1.6491                 1.7747                 1.5290
 Frc consts  --      0.8997                 1.0100                 0.8772
 IR Inten    --      0.0103                29.1037                 1.7051
  Atom  AN      X      Y      Z        X      Y      Z        X      Y      Z
     1   6    -0.04   0.01  -0.05     0.01   0.00  -0.01     0.01   0.02  -0.02
     2   6    -0.00  -0.03   0.01     0.00   0.02   0.00    -0.01   0.01  -0.00
     3   6     0.02   0.02  -0.05    -0.07  -0.09   0.06    -0.04  -0.06   0.06
     4   6    -0.02   0.02   0.05    -0.07   0.09   0.06     0.04  -0.06  -0.06
     5   6     0.00  -0.03  -0.01     0.00  -0.02   0.00     0.01   0.01   0.00
     6   6    -0.02  -0.07   0.01    -0.02  -0.06   0.05    -0.01  -0.06   0.05
     7   6     0.04   0.01   0.05     0.01  -0.00  -0.01    -0.01   0.02   0.02
     8   6     0.02  -0.07  -0.01    -0.02   0.06   0.05     0.01  -0.06  -0.05
     9   6    -0.02   0.08  -0.10     0.04  -0.06  -0.08    -0.02   0.05   0.07
    10   6     0.02   0.08   0.10     0.04   0.06  -0.08     0.02   0.05  -0.07
    11   1     0.40  -0.02   0.10     0.06   0.04  -0.15     0.09   0.05  -0.14
    12   1    -0.04  -0.07  -0.00     0.05   0.21   0.01     0.08   0.06   0.04
    13   1     0.03  -0.05  -0.23    -0.12  -0.04   0.16    -0.37  -0.03  -0.00
    14   1    -0.03  -0.05   0.23    -0.12   0.04   0.16     0.37  -0.03   0.00
    15   1     0.04  -0.07   0.00     0.05  -0.21   0.01    -0.08   0.06  -0.04
    16   1    -0.05  -0.26  -0.16     0.01  -0.12   0.04    -0.04  -0.13  -0.02
    17   1    -0.40  -0.02  -0.10     0.06  -0.04  -0.15    -0.09   0.05   0.14
    18   1     0.05  -0.26   0.16     0.01   0.12   0.04     0.04  -0.13   0.02
    19   1    -0.05  -0.07   0.15     0.13  -0.29  -0.08    -0.10   0.28   0.05
    20   1     0.19   0.27  -0.05     0.30  -0.28  -0.24    -0.29   0.23   0.22
    21   1     0.05  -0.07  -0.15     0.13   0.29  -0.08     0.10   0.28  -0.05
    22   1    -0.19   0.27   0.05     0.30   0.28  -0.24     0.29   0.23  -0.22
                     28                     29                     30
                      A                      A                      A
 Frequencies --   1009.1398              1075.1308              1077.7704
 Red. masses --      1.4333                 1.5729                 1.4900
 Frc consts  --      0.8600                 1.0712                 1.0197
 IR Inten    --     15.4878                 0.2149                 3.3919
  Atom  AN      X      Y      Z        X      Y      Z        X      Y      Z
     1   6    -0.00  -0.06   0.01    -0.03  -0.08   0.03    -0.03  -0.07   0.03
     2   6     0.03  -0.00  -0.03     0.04   0.05  -0.07     0.03   0.06  -0.06
     3   6    -0.06   0.03  -0.03     0.04   0.04  -0.01     0.05   0.03  -0.01
     4   6    -0.06  -0.03  -0.03    -0.04   0.04   0.01     0.05  -0.03  -0.01
     5   6     0.03   0.00  -0.03    -0.04   0.05   0.07     0.03  -0.06  -0.06
     6   6    -0.04  -0.02  -0.02    -0.02  -0.04   0.03    -0.00  -0.04   0.03
     7   6    -0.00   0.06   0.01     0.03  -0.08  -0.03    -0.03   0.07   0.03
     8   6    -0.04   0.02  -0.02     0.02  -0.05  -0.03    -0.00   0.04   0.03
     9   6     0.05  -0.03   0.05     0.01   0.02  -0.01    -0.02  -0.01   0.00
    10   6     0.05   0.03   0.05    -0.01   0.02   0.01    -0.02   0.01   0.00
    11   1    -0.07  -0.09   0.09    -0.25  -0.20   0.37    -0.24  -0.17   0.32
    12   1    -0.03   0.06  -0.07     0.18   0.41  -0.05     0.22   0.41  -0.00
    13   1     0.41   0.11   0.36    -0.09   0.04  -0.07    -0.17   0.00  -0.19
    14   1     0.41  -0.11   0.36     0.09   0.04   0.07    -0.17  -0.00  -0.18
    15   1    -0.03  -0.06  -0.07    -0.18   0.41   0.05     0.22  -0.41  -0.00
    16   1     0.10  -0.03   0.07    -0.03  -0.11  -0.02    -0.05  -0.08  -0.03
    17   1    -0.07   0.09   0.09     0.25  -0.20  -0.37    -0.24   0.17   0.32
    18   1     0.10   0.03   0.07     0.03  -0.11   0.02    -0.05   0.08  -0.03
    19   1    -0.03   0.21  -0.05     0.02   0.01  -0.04    -0.00  -0.04   0.01
    20   1    -0.08  -0.25  -0.04    -0.02   0.07   0.02    -0.01  -0.01   0.01
    21   1    -0.03  -0.21  -0.05    -0.02   0.01   0.04    -0.00   0.04   0.01
    22   1    -0.08   0.25  -0.04     0.02   0.07  -0.02    -0.01   0.01   0.01
                     31                     32                     33
                      A                      A                      A
 Frequencies --   1092.2926              1096.3026              1116.0894
 Red. masses --      1.2835                 1.1834                 1.3455
 Frc consts  --      0.9023                 0.8380                 0.9875
 IR Inten    --      0.0829                 0.4656                 2.0534
  Atom  AN      X      Y      Z        X      Y      Z        X      Y      Z
     1   6     0.01   0.04   0.00     0.02   0.02  -0.01     0.01  -0.05  -0.03
     2   6    -0.03   0.04   0.03    -0.01   0.03   0.01     0.03   0.00  -0.06
     3   6     0.01  -0.07  -0.01    -0.00  -0.06  -0.01     0.01   0.01   0.00
     4   6    -0.01  -0.07   0.01    -0.00   0.06  -0.01    -0.01   0.01  -0.00
     5   6     0.03   0.04  -0.03    -0.01  -0.03   0.01    -0.03   0.00   0.06
     6   6     0.00   0.02   0.01    -0.04   0.01   0.01    -0.05  -0.02   0.04
     7   6    -0.01   0.04  -0.00     0.02  -0.02  -0.01    -0.01  -0.05   0.03
     8   6    -0.00   0.02  -0.01    -0.04  -0.01   0.01     0.05  -0.02  -0.04
     9   6     0.00  -0.03   0.01     0.01   0.02   0.01     0.01   0.03  -0.03
    10   6    -0.00  -0.03  -0.01     0.01  -0.02   0.01    -0.01   0.03   0.03
    11   1     0.07   0.07  -0.07     0.12   0.06  -0.15     0.19   0.02  -0.28
    12   1     0.11   0.35   0.08     0.08   0.32   0.03     0.04   0.04  -0.07
    13   1     0.07  -0.27  -0.47     0.25  -0.22  -0.29    -0.04   0.03   0.03
    14   1    -0.07  -0.27   0.47     0.25   0.22  -0.29     0.04   0.03  -0.03
    15   1    -0.11   0.35  -0.08     0.08  -0.32   0.03    -0.04   0.04   0.07
    16   1    -0.05   0.10   0.04    -0.04   0.21   0.16    -0.13   0.39   0.32
    17   1    -0.07   0.07   0.07     0.12  -0.06  -0.15    -0.19   0.02   0.28
    18   1     0.05   0.10  -0.04    -0.04  -0.21   0.16     0.13   0.39  -0.32
    19   1     0.02  -0.05  -0.03    -0.11   0.25   0.09     0.13  -0.18  -0.13
    20   1     0.02  -0.11  -0.04     0.00  -0.03  -0.02     0.01   0.14   0.02
    21   1    -0.02  -0.05   0.03    -0.11  -0.25   0.09    -0.13  -0.18   0.13
    22   1    -0.02  -0.11   0.04     0.00   0.03  -0.02    -0.01   0.14  -0.02
                     34                     35                     36
                      A                      A                      A
 Frequencies --   1122.8083              1134.6967              1153.8227
 Red. masses --      1.4611                 1.1716                 1.1926
 Frc consts  --      1.0853                 0.8888                 0.9354
 IR Inten    --      4.2400                 4.7074                 4.8459
  Atom  AN      X      Y      Z        X      Y      Z        X      Y      Z
     1   6     0.00  -0.07  -0.03    -0.01  -0.03  -0.01     0.00  -0.02  -0.01
     2   6     0.04  -0.00  -0.07     0.02   0.00  -0.03     0.00   0.00  -0.03
     3   6     0.01   0.02  -0.01    -0.01   0.01  -0.03     0.05   0.01   0.05
     4   6     0.01  -0.02  -0.01     0.01   0.01   0.03     0.05  -0.01   0.05
     5   6     0.04   0.00  -0.07    -0.02   0.00   0.03     0.00  -0.00  -0.03
     6   6    -0.01  -0.03   0.06     0.03  -0.02   0.05    -0.02  -0.00  -0.02
     7   6     0.00   0.07  -0.03     0.01  -0.03   0.01     0.00   0.02  -0.01
     8   6    -0.01   0.03   0.06    -0.03  -0.02  -0.05    -0.02   0.00  -0.02
     9   6    -0.03  -0.03   0.04     0.02   0.00  -0.03    -0.00  -0.03  -0.01
    10   6    -0.03   0.03   0.04    -0.02   0.00   0.03    -0.00   0.03  -0.01
    11   1     0.17   0.01  -0.29     0.03   0.00  -0.11     0.05  -0.02  -0.02
    12   1     0.03  -0.05  -0.08     0.05   0.01  -0.02    -0.01  -0.18  -0.02
    13   1    -0.12   0.09   0.09    -0.00   0.03   0.02    -0.29   0.06   0.02
    14   1    -0.12  -0.09   0.09     0.00   0.03  -0.02    -0.29  -0.06   0.02
    15   1     0.03   0.05  -0.08    -0.05   0.01   0.02    -0.01   0.18  -0.02
    16   1    -0.18   0.38   0.27    -0.11   0.12   0.06     0.01   0.05   0.05
    17   1     0.17  -0.01  -0.29    -0.03   0.00   0.11     0.05   0.02  -0.02
    18   1    -0.18  -0.38   0.27     0.11   0.12  -0.06     0.01  -0.05   0.05
    19   1     0.06  -0.17  -0.06    -0.25   0.43   0.25    -0.25   0.34   0.27
    20   1    -0.13   0.06   0.12     0.18  -0.25  -0.19     0.14  -0.26  -0.15
    21   1     0.06   0.17  -0.06     0.25   0.43  -0.25    -0.25  -0.34   0.27
    22   1    -0.13  -0.06   0.12    -0.18  -0.25   0.19     0.14   0.26  -0.15
                     37                     38                     39
                      A                      A                      A
 Frequencies --   1277.7880              1281.5912              1307.7325
 Red. masses --      1.6855                 1.6931                 1.5970
 Frc consts  --      1.6214                 1.6385                 1.6091
 IR Inten    --      4.8250                 2.5412                 1.1715
  Atom  AN      X      Y      Z        X      Y      Z        X      Y      Z
     1   6    -0.01   0.02   0.03     0.01  -0.02  -0.03    -0.02  -0.04   0.03
     2   6     0.01  -0.03  -0.03    -0.01   0.03   0.03    -0.02  -0.03   0.03
     3   6    -0.02  -0.02   0.02     0.03   0.02  -0.02     0.06  -0.02  -0.08
     4   6    -0.02   0.02   0.02    -0.03   0.02   0.02    -0.07  -0.02   0.09
     5   6     0.01   0.03  -0.03     0.01   0.03  -0.03     0.02  -0.03  -0.03
     6   6    -0.01  -0.03   0.02     0.01   0.03  -0.03    -0.00   0.08   0.01
     7   6    -0.01  -0.02   0.03    -0.01  -0.02   0.03     0.02  -0.04  -0.03
     8   6    -0.01   0.03   0.02    -0.01   0.03   0.03     0.00   0.09  -0.01
     9   6     0.07  -0.12  -0.07     0.07  -0.12  -0.07     0.03  -0.03  -0.02
    10   6     0.07   0.12  -0.07    -0.07  -0.12   0.07    -0.02  -0.03   0.02
    11   1     0.05   0.06  -0.09    -0.04  -0.06   0.08     0.18   0.06  -0.30
    12   1     0.05   0.08  -0.02    -0.05  -0.10   0.02     0.06   0.33   0.04
    13   1    -0.09   0.02   0.10     0.09  -0.02  -0.10    -0.17   0.16   0.26
    14   1    -0.09  -0.02   0.10    -0.09  -0.02   0.10     0.18   0.18  -0.28
    15   1     0.05  -0.08  -0.02     0.05  -0.10  -0.02    -0.07   0.36  -0.04
    16   1     0.03  -0.17  -0.05    -0.03   0.17   0.04     0.07  -0.20  -0.16
    17   1     0.05  -0.06  -0.09     0.04  -0.06  -0.08    -0.19   0.07   0.32
    18   1     0.03   0.17  -0.05     0.03   0.17  -0.04    -0.07  -0.22   0.18
    19   1    -0.13   0.22   0.12    -0.14   0.23   0.12     0.02  -0.02  -0.03
    20   1    -0.26   0.42   0.26    -0.26   0.42   0.26    -0.02   0.04   0.02
    21   1    -0.13  -0.22   0.12     0.14   0.23  -0.12    -0.02  -0.01   0.03
    22   1    -0.26  -0.42   0.26     0.26   0.42  -0.26     0.02   0.03  -0.02
                     40                     41                     42
                      A                      A                      A
 Frequencies --   1307.7500              1391.4560              1424.2989
 Red. masses --      1.5895                 3.4357                 2.1325
 Frc consts  --      1.6017                 3.9193                 2.5489
 IR Inten    --      1.9376                12.3157                 9.4721
  Atom  AN      X      Y      Z        X      Y      Z        X      Y      Z
     1   6    -0.02  -0.04   0.03    -0.06  -0.05   0.07    -0.06  -0.10   0.08
     2   6    -0.02  -0.04   0.03     0.04   0.22   0.04     0.05   0.08  -0.07
     3   6     0.06  -0.02  -0.08     0.07  -0.15  -0.06    -0.05   0.02   0.07
     4   6     0.06   0.01  -0.08    -0.07  -0.15   0.06    -0.05  -0.02   0.07
     5   6    -0.02   0.04   0.03    -0.04   0.22  -0.04     0.05  -0.08  -0.07
     6   6    -0.00   0.09   0.02     0.05  -0.03  -0.07     0.00   0.09   0.02
     7   6    -0.02   0.04   0.03     0.06  -0.05  -0.07    -0.06   0.10   0.08
     8   6    -0.00  -0.09   0.01    -0.05  -0.03   0.07     0.00  -0.09   0.02
     9   6    -0.03   0.03   0.02     0.03   0.07  -0.03     0.02   0.03  -0.01
    10   6    -0.03  -0.04   0.02    -0.03   0.07   0.03     0.02  -0.03  -0.01
    11   1     0.19   0.07  -0.32     0.01  -0.02  -0.03     0.18   0.01  -0.31
    12   1     0.07   0.37   0.04    -0.11  -0.42   0.03     0.00  -0.25  -0.09
    13   1    -0.16   0.17   0.29    -0.34  -0.04   0.10     0.14  -0.15  -0.28
    14   1    -0.14  -0.16   0.26     0.34  -0.04  -0.10     0.14   0.15  -0.28
    15   1     0.06  -0.35   0.04     0.11  -0.42  -0.03     0.00   0.25  -0.09
    16   1     0.08  -0.22  -0.17     0.00   0.10  -0.01     0.08  -0.26  -0.20
    17   1     0.17  -0.06  -0.29    -0.01  -0.02   0.03     0.18  -0.01  -0.31
    18   1     0.07   0.20  -0.16    -0.00   0.10   0.01     0.08   0.26  -0.20
    19   1    -0.03   0.02   0.02     0.06  -0.15   0.11     0.05   0.02  -0.07
    20   1     0.03  -0.04  -0.03    -0.08  -0.11  -0.09     0.06   0.03  -0.03
    21   1    -0.03  -0.02   0.03    -0.06  -0.15  -0.11     0.05  -0.02  -0.07
    22   1     0.03   0.04  -0.03     0.08  -0.11   0.09     0.06  -0.03  -0.03
                     43                     44                     45
                      A                      A                      A
 Frequencies --   1428.8871              1439.9262              1459.6976
 Red. masses --      2.1076                 2.9158                 1.1276
 Frc consts  --      2.5353                 3.5619                 1.4156
 IR Inten    --      2.6360                 2.0326                 4.9112
  Atom  AN      X      Y      Z        X      Y      Z        X      Y      Z
     1   6     0.05   0.10  -0.06    -0.05  -0.02   0.08    -0.01  -0.01   0.01
     2   6    -0.05  -0.06   0.08     0.01   0.17   0.05     0.01   0.03   0.00
     3   6     0.05  -0.04  -0.09     0.02  -0.13  -0.10     0.01  -0.02  -0.00
     4   6    -0.05  -0.04   0.09     0.02   0.13  -0.09    -0.01  -0.02   0.00
     5   6     0.05  -0.06  -0.08     0.01  -0.17   0.05    -0.01   0.03  -0.00
     6   6     0.01  -0.09  -0.03     0.05  -0.05  -0.08     0.01   0.01  -0.00
     7   6    -0.05   0.10   0.06    -0.05   0.02   0.08     0.01  -0.01  -0.01
     8   6    -0.01  -0.09   0.03     0.05   0.05  -0.08    -0.01   0.01   0.00
     9   6     0.01   0.03  -0.01    -0.04  -0.07   0.05    -0.03  -0.04   0.03
    10   6    -0.01   0.03   0.01    -0.04   0.07   0.05     0.03  -0.04  -0.03
    11   1    -0.17  -0.00   0.29    -0.00   0.01   0.00     0.00  -0.01  -0.02
    12   1    -0.00   0.21   0.10    -0.06  -0.21   0.06    -0.03  -0.08  -0.00
    13   1    -0.19   0.14   0.28    -0.14  -0.01   0.18    -0.02  -0.03  -0.01
    14   1     0.19   0.14  -0.28    -0.14   0.01   0.18     0.02  -0.03   0.01
    15   1     0.00   0.21  -0.10    -0.06   0.21   0.06     0.03  -0.08   0.00
    16   1    -0.09   0.28   0.19    -0.01   0.15   0.02     0.01  -0.02  -0.03
    17   1     0.17  -0.00  -0.29    -0.00  -0.01   0.00    -0.00  -0.01   0.02
    18   1     0.09   0.28  -0.19    -0.01  -0.15   0.02    -0.01  -0.02   0.03
    19   1     0.04   0.05  -0.09     0.01   0.22  -0.35     0.03   0.26  -0.41
    20   1     0.10   0.04  -0.03     0.28   0.18   0.09     0.45   0.22   0.04
    21   1    -0.04   0.05   0.09     0.01  -0.22  -0.35    -0.03   0.26   0.41
    22   1    -0.10   0.04   0.03     0.28  -0.18   0.09    -0.45   0.22  -0.04
                     46                     47                     48
                      A                      A                      A
 Frequencies --   1463.1200              1553.1922              1566.3225
 Red. masses --      1.3299                 4.2346                 4.5038
 Frc consts  --      1.6774                 6.0189                 6.5101
 IR Inten    --     11.2767                 5.7177                 0.6686
  Atom  AN      X      Y      Z        X      Y      Z        X      Y      Z
     1   6     0.02   0.01  -0.03    -0.10   0.08   0.21     0.12  -0.07  -0.24
     2   6    -0.00  -0.07  -0.02    -0.00  -0.12  -0.07    -0.02   0.09   0.07
     3   6    -0.01   0.06   0.03    -0.01   0.07   0.06     0.02  -0.05  -0.05
     4   6    -0.01  -0.06   0.03    -0.01  -0.07   0.06    -0.02  -0.05   0.05
     5   6    -0.00   0.07  -0.02    -0.00   0.12  -0.07     0.02   0.09  -0.07
     6   6    -0.02   0.01   0.03     0.10  -0.11  -0.19    -0.10   0.12   0.20
     7   6     0.02  -0.01  -0.03    -0.10  -0.08   0.21    -0.12  -0.07   0.24
     8   6    -0.02  -0.01   0.03     0.10   0.11  -0.19     0.10   0.12  -0.20
     9   6    -0.03  -0.03   0.02    -0.01   0.01   0.02    -0.01   0.00   0.02
    10   6    -0.03   0.03   0.02    -0.01  -0.01   0.02     0.01   0.00  -0.02
    11   1     0.00  -0.00   0.01     0.15   0.25  -0.20    -0.16  -0.25   0.22
    12   1     0.02   0.09  -0.03     0.13   0.28  -0.05    -0.10  -0.24   0.07
    13   1     0.03   0.03  -0.05     0.01   0.02  -0.08    -0.03  -0.02   0.06
    14   1     0.03  -0.03  -0.05     0.01  -0.02  -0.08     0.03  -0.02  -0.06
    15   1     0.02  -0.09  -0.03     0.13  -0.28  -0.05     0.10  -0.24  -0.07
    16   1    -0.01  -0.03   0.01     0.00   0.28   0.01    -0.02  -0.28  -0.00
    17   1     0.00   0.00   0.01     0.15  -0.25  -0.20     0.16  -0.25  -0.22
    18   1    -0.01   0.03   0.01     0.01  -0.28   0.01     0.02  -0.28   0.00
    19   1     0.02   0.26  -0.38     0.04  -0.10  -0.01     0.04  -0.11   0.00
    20   1     0.46   0.21   0.02     0.03  -0.18  -0.08    -0.00  -0.19  -0.07
    21   1     0.02  -0.26  -0.38     0.04   0.10  -0.01    -0.04  -0.11  -0.00
    22   1     0.46  -0.21   0.02     0.03   0.18  -0.08     0.00  -0.18   0.07
                     49                     50                     51
                      A                      A                      A
 Frequencies --   2979.2461              2979.3309              3089.2108
 Red. masses --      1.0723                 1.0726                 1.0876
 Frc consts  --      5.6075                 5.6095                 6.1154
 IR Inten    --     90.0379                12.7452                16.3845
  Atom  AN      X      Y      Z        X      Y      Z        X      Y      Z
     1   6     0.00   0.00  -0.00     0.00   0.00  -0.00     0.00  -0.00   0.00
     2   6    -0.00  -0.00   0.00    -0.00  -0.00   0.00    -0.00   0.00   0.00
     3   6    -0.00  -0.00  -0.00    -0.00  -0.00  -0.00     0.00  -0.00   0.00
     4   6    -0.00   0.00  -0.00     0.00  -0.00   0.00    -0.00  -0.00  -0.00
     5   6    -0.00   0.00   0.00     0.00  -0.00  -0.00     0.00   0.00  -0.00
     6   6    -0.00   0.00  -0.00    -0.00   0.00  -0.00     0.00   0.00  -0.00
     7   6     0.00  -0.00  -0.00    -0.00   0.00   0.00    -0.00  -0.00  -0.00
     8   6    -0.00  -0.00  -0.00     0.00   0.00   0.00    -0.00   0.00   0.00
     9   6    -0.05  -0.02  -0.01     0.05   0.02   0.01    -0.02   0.02  -0.05
    10   6    -0.05   0.02  -0.01    -0.05   0.02  -0.01     0.02   0.02   0.05
    11   1    -0.00  -0.00  -0.00    -0.00  -0.00  -0.00    -0.00   0.00  -0.00
    12   1     0.00   0.00  -0.00     0.00   0.00  -0.00     0.00  -0.00  -0.01
    13   1     0.00   0.02  -0.00     0.00   0.02  -0.00     0.00   0.03  -0.01
    14   1     0.00  -0.02  -0.00    -0.00   0.02   0.00    -0.00   0.03   0.01
    15   1     0.00  -0.00  -0.00    -0.00   0.00   0.00    -0.00  -0.00   0.01
    16   1    -0.00  -0.00   0.01    -0.00  -0.00   0.01    -0.01  -0.01   0.02
    17   1    -0.00   0.00  -0.00     0.00  -0.00   0.00     0.00   0.00   0.00
    18   1    -0.00   0.00   0.01     0.00  -0.00  -0.01     0.01  -0.01  -0.02
    19   1     0.62   0.24   0.24    -0.60  -0.23  -0.23     0.07   0.03   0.01
    20   1    -0.03   0.03  -0.09     0.03  -0.03   0.08     0.13  -0.30   0.62
    21   1     0.60  -0.23   0.23     0.63  -0.24   0.24    -0.07   0.03  -0.01
    22   1    -0.03  -0.03  -0.09    -0.03  -0.03  -0.08    -0.13  -0.30  -0.62
                     52                     53                     54
                      A                      A                      A
 Frequencies --   3090.8425              3170.8657              3177.0153
 Red. masses --      1.0884                 1.0913                 1.0903
 Frc consts  --      6.1262                 6.4650                 6.4837
 IR Inten    --     36.8106                 3.0962                22.0196
  Atom  AN      X      Y      Z        X      Y      Z        X      Y      Z
     1   6    -0.00   0.00  -0.00     0.00   0.00   0.00     0.00   0.00   0.00
     2   6    -0.00  -0.00   0.00     0.00   0.00  -0.01     0.01   0.00  -0.01
     3   6    -0.00   0.00  -0.00    -0.01  -0.06   0.02    -0.01  -0.06   0.02
     4   6    -0.00  -0.00  -0.00    -0.01   0.06   0.02     0.01  -0.06  -0.02
     5   6    -0.00   0.00   0.00     0.00  -0.00  -0.01    -0.01   0.00   0.01
     6   6    -0.00  -0.00   0.00    -0.00  -0.00   0.00    -0.00  -0.00   0.00
     7   6    -0.00  -0.00  -0.00     0.00  -0.00   0.00    -0.00   0.00  -0.00
     8   6    -0.00   0.00   0.00    -0.00   0.00   0.00     0.00  -0.00  -0.00
     9   6    -0.02   0.02  -0.05     0.00   0.00  -0.00    -0.00  -0.00   0.00
    10   6    -0.02  -0.02  -0.05     0.00  -0.00  -0.00     0.00  -0.00  -0.00
    11   1    -0.00   0.00   0.00     0.00  -0.04  -0.01     0.00  -0.04  -0.01
    12   1     0.00  -0.00  -0.00    -0.06   0.01   0.11    -0.06   0.01   0.12
    13   1     0.00  -0.01   0.00     0.10   0.63  -0.26     0.10   0.63  -0.26
    14   1     0.00   0.01   0.00     0.10  -0.63  -0.26    -0.10   0.63   0.26
    15   1     0.00   0.00  -0.00    -0.06  -0.01   0.11     0.06   0.01  -0.12
    16   1     0.01   0.01  -0.02     0.02   0.02  -0.02     0.02   0.02  -0.02
    17   1    -0.00  -0.00   0.00     0.00   0.04  -0.01    -0.00  -0.04   0.01
    18   1     0.01  -0.01  -0.02     0.02  -0.02  -0.02    -0.02   0.02   0.02
    19   1     0.07   0.04   0.02    -0.01  -0.00  -0.00     0.01   0.00   0.00
    20   1     0.13  -0.30   0.62     0.00  -0.00   0.01    -0.00   0.01  -0.03
    21   1     0.07  -0.04   0.02    -0.01   0.00  -0.00    -0.01   0.00  -0.00
    22   1     0.13   0.30   0.62     0.00   0.00   0.01     0.00   0.01   0.03
                     55                     56                     57
                      A                      A                      A
 Frequencies --   3188.2897              3189.8262              3214.6084
 Red. masses --      1.0884                 1.0884                 1.0975
 Frc consts  --      6.5189                 6.5248                 6.6821
 IR Inten    --      8.1480                17.9445                19.4791
  Atom  AN      X      Y      Z        X      Y      Z        X      Y      Z
     1   6     0.00  -0.05  -0.02     0.00  -0.05  -0.02    -0.00   0.02   0.01
     2   6    -0.00   0.00   0.01    -0.00   0.00   0.01     0.01  -0.00  -0.02
     3   6    -0.00  -0.01   0.00    -0.00  -0.01   0.00    -0.00   0.00   0.00
     4   6    -0.00   0.01   0.00     0.00  -0.01  -0.00    -0.00  -0.00   0.00
     5   6    -0.00  -0.00   0.01     0.00   0.00  -0.01     0.01   0.00  -0.02
     6   6     0.01   0.01  -0.02     0.01   0.01  -0.02     0.03   0.03  -0.04
     7   6     0.00   0.05  -0.02    -0.00  -0.05   0.02    -0.00  -0.02   0.01
     8   6     0.01  -0.01  -0.02    -0.01   0.01   0.02     0.03  -0.03  -0.04
     9   6     0.00   0.00  -0.00     0.00  -0.00   0.00    -0.00   0.00  -0.00
    10   6     0.00  -0.00  -0.00    -0.00  -0.00  -0.00    -0.00  -0.00  -0.00
    11   1    -0.02   0.60   0.18    -0.02   0.60   0.17     0.01  -0.23  -0.07
    12   1     0.05  -0.01  -0.10     0.05  -0.01  -0.10    -0.10   0.02   0.21
    13   1     0.01   0.06  -0.03     0.01   0.07  -0.03    -0.00  -0.02   0.01
    14   1     0.01  -0.06  -0.03    -0.01   0.07   0.03    -0.00   0.02   0.01
    15   1     0.05   0.01  -0.10    -0.05  -0.01   0.10    -0.10  -0.02   0.19
    16   1    -0.14  -0.16   0.20    -0.15  -0.16   0.21    -0.31  -0.34   0.44
    17   1    -0.02  -0.60   0.18     0.02   0.60  -0.17     0.01   0.22  -0.07
    18   1    -0.14   0.16   0.20     0.15  -0.16  -0.21    -0.29   0.32   0.42
    19   1    -0.00  -0.00  -0.00    -0.00   0.00   0.00    -0.00  -0.00  -0.00
    20   1     0.00  -0.00   0.01    -0.00   0.01  -0.01     0.00  -0.01   0.02
    21   1    -0.00   0.00  -0.00     0.00   0.00  -0.00    -0.00   0.00  -0.00
    22   1     0.00   0.00   0.01     0.00   0.01   0.01     0.00   0.01   0.02
                     58                     59                     60
                      A                      A                      A
 Frequencies --   3214.6859              3228.9794              3229.3353
 Red. masses --      1.0978                 1.0995                 1.0998
[...]
 7,-0.00388489,-0.12775396,0.02355866,-0.28134391,-0.00690922,-0.003808
 89,-0.00616061,0.00015449,-0.00014598,-0.00025398,-0.00061718,0.000564
 68,-0.00022115,-0.00205200,-0.00038214,-0.00083136,0.00004746,-0.00018
 975,0.00076153,0.00112035,-0.00068698,-0.00098493,-0.00049419,-0.00037
 033,-0.00030346,-0.00144162,0.00123458,0.00040864,0.00060929,-0.000470
 42,-0.00026153,0.13810941,-0.02614947,0.29314351,0.00538838,0.00056997
 ,0.00082326,0.00107221,-0.00435982,0.00276829,-0.03903043,-0.02830289,
 -0.03134467,-0.00813723,0.00969959,0.01118226,-0.00152777,-0.00445850,
 -0.00093912,-0.00260446,0.00201969,-0.00441941,-0.00095050,0.00114562,
 -0.00171786,-0.00060336,0.00121963,0.00147214,0.00167768,0.00060469,0.
 00078495,-0.00144363,-0.01813510,-0.00308933,0.00037792,-0.00016103,0.
 00007127,-0.00231796,0.00021427,0.00162636,0.04507109,0.00040343,-0.00
 373940,0.00219042,-0.00410465,-0.01401444,-0.01385000,-0.03700416,-0.2
 9162301,-0.09597547,-0.00069407,-0.00035231,0.00037930,-0.00007261,0.0
 0022095,-0.00012058,0.00078684,-0.00018460,0.00089003,-0.00006678,0.00
 050235,0.00000403,-0.00021975,-0.00013164,0.00040089,-0.00000096,-0.00
 009944,-0.00021639,0.00184388,0.00203029,0.00201747,-0.00105093,-0.000
 52975,-0.00042273,0.00002783,0.00069910,0.00048642,0.04094975,0.306010
 60,-0.00321385,0.00299074,-0.00307538,0.00432701,0.02074625,0.01030449
 ,-0.03111066,-0.10455799,-0.08355127,0.00445129,-0.00641639,-0.0064434
 1,0.00084021,0.00210873,0.00057177,-0.00315870,-0.00146408,-0.00251110
 ,0.00022243,-0.00034860,0.00034066,0.00023255,0.00019721,-0.00062983,-
 0.00105870,-0.00019701,0.00012053,0.00423256,-0.01647318,-0.00392826,0
 .00060447,0.00067423,0.00059409,0.00148151,-0.00140268,-0.00050308,0.0
 2399155,0.10427858,0.08665450,-0.00095060,-0.00114592,-0.00171792,-0.0
 0152769,0.00445847,-0.00093960,-0.00813734,-0.00969854,0.01118340,-0.0
 3903126,0.02830429,-0.03134957,0.00107223,0.00436022,0.00276777,-0.000
 60345,-0.00121962,0.00147243,0.00538826,-0.00056969,0.00082316,-0.0026
 0452,-0.00202003,-0.00441914,-0.00144397,0.01813488,-0.00309130,0.0016
 7768,-0.00060462,0.00078504,0.00019893,-0.00005991,-0.00018989,0.00015
 941,-0.00002753,-0.00001017,0.00097655,-0.00019301,-0.00024162,0.04507
 274,0.00006678,0.00050237,-0.00000407,0.00007266,0.00022079,0.00012060
 ,0.00069443,-0.00035181,-0.00037975,0.03700557,-0.29160322,0.09599736,
 0.00410547,-0.01401505,0.01385245,0.00021979,-0.00013171,-0.00040094,-
 0.00040366,-0.00373994,-0.00219033,-0.00078722,-0.00018456,-0.00089032
 ,-0.00184351,0.00203203,-0.00201811,0.00000090,-0.00009943,0.00021643,
 -0.00006499,0.00005152,0.00003601,0.00004374,0.00000215,-0.00005810,0.
 00019301,0.00072968,0.00002789,-0.04095218,0.30598966,0.00022248,0.000
 34864,0.00034070,0.00084018,-0.00210880,0.00057202,0.00445141,0.006415
 95,-0.00644429,-0.03111669,0.10458002,-0.08357146,0.00432696,-0.020743
 81,0.01030505,0.00023258,-0.00019724,-0.00062986,-0.00321385,-0.002990
 74,-0.00307476,-0.00315859,0.00146370,-0.00251108,0.00423237,0.0164725
 6,-0.00392981,-0.00105879,0.00019704,0.00012051,-0.00011342,-0.0000203
 3,0.00006609,-0.00014212,0.00002845,0.00009339,-0.00024165,-0.00002803
 ,-0.00029762,0.02399787,-0.10430159,0.08667579,-0.00080341,-0.00079792
 ,-0.00225360,0.00135272,0.00208898,0.00068290,-0.00114135,-0.00090606,
 0.00178949,0.00283582,0.00107921,-0.00050734,-0.09012805,-0.00449693,-
 0.12885976,-0.00274872,-0.00076638,0.00347763,-0.00437008,-0.00406038,
 -0.00964886,0.00110942,0.00282930,-0.00092666,0.00364460,0.00002358,-0
 .00291433,0.00016277,-0.00038601,0.00004305,-0.00002072,0.00000346,-0.
 00005487,-0.00022055,0.00007611,0.00003318,0.00015942,-0.00004375,-0.0
 0014213,-0.00231793,-0.00002772,0.00148151,0.09322227,0.00009471,-0.00
 008643,-0.00030902,0.00047075,-0.00017446,0.00038359,-0.00025554,-0.00
 021215,-0.00024784,-0.01306042,0.00516174,-0.02041386,-0.00300355,-0.0
 5797146,-0.02497325,-0.00050943,-0.00009395,0.00056457,0.00732257,0.00
 834823,0.01955834,0.00246399,-0.00389876,0.00275424,0.00161051,-0.0037
 6838,-0.00348647,0.00034420,0.00004599,-0.00036816,0.00002987,0.000005
 22,0.00000956,-0.00007611,-0.00002702,0.00000892,0.00002755,0.00000215
 ,-0.00002845,-0.00021416,0.00069920,0.00140260,0.00543028,0.05065001,0
 .00004748,0.00018985,0.00076167,-0.00061722,-0.00056478,-0.00022120,0.
 00015461,0.00014604,-0.00025406,-0.00690804,0.00380769,-0.00615877,-0.
 12775494,-0.02358319,-0.28133877,0.00112057,0.00068699,-0.00098526,-0.
 00135269,-0.00552089,-0.00388596,-0.00205221,0.00038231,-0.00083173,-0
 .00144177,-0.00123414,0.00040916,-0.00049428,0.00037029,-0.00030345,0.
 00001817,-0.00002028,0.00001056,0.00003319,-0.00000891,0.00007627,-0.0
 0001018,0.00005811,0.00009339,0.00162640,-0.00048653,-0.00050319,0.138
 10960,0.02617599,0.29313773,-0.00080519,-0.00723400,-0.00447005,0.0033
 2597,0.00029430,-0.00494719,-0.00095890,-0.00002922,-0.00090598,0.0002
 0460,0.00008344,0.00020186,-0.00008529,0.00010640,-0.00037012,-0.10328
 015,-0.07796662,-0.11146664,0.00040670,-0.00031925,0.00026515,-0.00002
 655,-0.00001015,-0.00035153,0.00017252,0.00033782,0.00020244,0.0017249
 7,0.00296781,0.00397382,-0.00308833,0.00068137,0.00212435,0.00039332,-
 0.00103107,-0.00039251,0.00102830,-0.00014194,-0.00103465,-0.00002614,
 -0.00005511,-0.00004813,0.00000779,-0.00014135,0.00017819,0.10120103,0
 .00678173,0.01031131,0.00898858,0.00051774,-0.00060177,0.00272413,0.00
 120581,-0.00575546,0.00040277,0.00039387,-0.00012342,-0.00023809,0.000
 10414,0.00004476,-0.00012565,-0.07739192,-0.14045644,-0.10791823,-0.00
 007073,0.00013317,0.00003425,-0.00012239,-0.00003813,0.00013905,-0.000
 01063,0.00010346,-0.00003949,-0.01384930,-0.00463553,-0.01784691,-0.00
 009933,0.00026881,-0.00112034,0.00016648,0.00081196,0.00026756,-0.0013
 6897,0.00013531,-0.00101723,0.00004466,0.00004684,-0.00006278,-0.00008
 449,-0.00001804,0.00011469,0.08322106,0.13923549,-0.01016552,-0.017546
 11,-0.00846223,-0.00379780,0.00250817,-0.00186515,0.00061857,0.0020061
 3,0.00026588,0.00007560,-0.00002577,-0.00016219,-0.00004763,0.00007507
 ,0.00042365,-0.10802680,-0.10401699,-0.18437061,-0.00018547,0.00006253
 ,-0.00016627,0.00004285,0.00010909,0.00020246,-0.00007588,-0.00018871,
 -0.00008563,0.00298986,0.00306716,0.00251579,0.00235940,0.00016005,-0.
 00057450,-0.00077544,-0.00075567,-0.00017729,-0.00039488,0.00006815,0.
 00100657,-0.00001142,0.00003392,0.00005544,-0.00007092,0.00002199,0.00
 003721,0.11760426,0.11529738,0.19091487,0.00010184,-0.00002438,0.00020
 967,0.00000657,-0.00015875,0.00015453,0.00015241,-0.00063533,-0.000459
 24,0.00181412,0.00280711,-0.00371048,0.00229579,0.01206260,0.00593220,
 0.00034375,-0.00004740,-0.00036083,-0.04247976,-0.00752378,-0.01055674
 ,0.00330688,-0.01305526,-0.00243656,0.00576981,0.00014960,-0.00671075,
 0.00003268,0.00002250,0.00001572,-0.00013046,-0.00005548,0.00011235,-0
 .00002072,-0.00002987,0.00001817,0.00019892,0.00006497,-0.00011342,0.0
 0037790,0.00105101,0.00060439,-0.00112960,-0.00077271,0.00060931,-0.00
 008762,0.00001132,0.00001376,0.03250990,-0.00018862,-0.00016231,-0.000
 15023,-0.00004247,0.00020607,-0.00034149,-0.00029965,-0.00001362,0.000
 33249,0.00121063,-0.00280658,0.00144306,-0.00399494,-0.01086020,-0.009
 50952,-0.00012337,0.00022765,0.00039648,-0.00542903,-0.31697871,-0.076
 81285,0.00172184,-0.00376535,0.00164777,0.00120607,0.00022008,-0.00143
 730,0.00005717,-0.00007186,-0.00002060,0.00005548,0.00016652,-0.000088
 46,-0.00000347,0.00000522,0.00002028,0.00005990,0.00005151,0.00002032,
 0.00016105,-0.00052975,-0.00067410,0.00001629,0.00033955,0.00047037,0.
 00011568,0.00000546,-0.00001544,0.00646882,0.33407281,0.00005683,-0.00
 008900,0.00012659,0.00002035,-0.00018149,0.00005573,0.00036781,0.00044
 544,-0.00020054,-0.00365154,0.00291784,-0.00056101,0.00201961,0.013899
 17,0.00887804,0.00001530,0.00009596,0.00014682,-0.01103079,-0.07480746
 ,-0.07659462,0.00058179,-0.02485151,0.00177824,-0.00495733,-0.00156871
 ,-0.00158754,-0.00004497,0.00001319,-0.00006813,0.00011235,0.00008844,
 -0.00005757,-0.00005486,-0.00000956,0.00001055,-0.00018989,-0.00003601
 ,0.00006609,0.00007125,0.00042282,0.00059410,0.00100351,-0.00074483,-0
 .00026151,-0.00001662,-0.00001875,-0.00000484,0.01368799,0.08490653,0.
 06846656,0.00040666,0.00031926,0.00026510,-0.00008525,-0.00010648,-0.0
 0037001,0.00020464,-0.00008341,0.00020186,-0.00095873,0.00002926,-0.00
 090587,0.00332594,-0.00029494,-0.00494730,-0.00002654,0.00001012,-0.00
 035147,-0.00080552,0.00723381,-0.00447106,-0.10328748,0.07795848,-0.11
 147825,0.00172473,-0.00296722,0.00397354,0.00017255,-0.00033783,0.0002
 0245,-0.00008761,-0.00011568,-0.00001661,0.00000777,0.00014135,0.00017
 816,-0.00002614,0.00005510,-0.00004813,0.00102820,0.00014184,-0.001034
 67,0.00039325,0.00103108,-0.00039262,0.00001293,0.00001117,-0.00000125
 ,-0.00308828,-0.00068126,0.00212448,0.10120883,0.00007073,0.00013316,-
 0.00003427,-0.00010413,0.00004474,0.00012568,-0.00039383,-0.00012339,0
 .00023807,-0.00120565,-0.00575568,-0.00040216,-0.00051810,-0.00060236,
 -0.00272435,0.00012241,-0.00003814,-0.00013904,-0.00678316,0.01031217,
 -0.00899051,0.07738440,-0.14043213,0.10791052,0.01384989,-0.00463376,0
 .01784754,0.00001062,0.00010347,0.00003948,-0.00001132,0.00000546,0.00
 001875,0.00008447,-0.00001804,-0.00011466,-0.00004466,0.00004685,0.000
 06278,0.00136898,0.00013544,0.00101725,-0.00016657,0.00081204,-0.00026
 766,-0.00001117,0.00001623,0.00000234,0.00009950,0.00026890,0.00112031
 ,-0.08321260,0.13920902,-0.00018547,-0.00006256,-0.00016626,-0.0000476
 5,-0.00007498,0.00042359,0.00007561,0.00002576,-0.00016223,0.00061870,
 -0.00200557,0.00026606,-0.00379781,-0.00250825,-0.00186441,0.00004284,
 -0.00010907,0.00020246,-0.01016526,0.01754381,-0.00846272,-0.10803874,
 0.10400932,-0.18438868,0.00298865,-0.00306639,0.00251434,-0.00007590,0
 .00018872,-0.00008564,0.00001377,0.00001544,-0.00000484,-0.00007092,-0
 .00002198,0.00003720,-0.00001141,-0.00003391,0.00005543,-0.00039500,-0
 .00006806,0.00100650,-0.00077547,0.00075549,-0.00017730,-0.00000124,-0
 .00000235,0.00000131,0.00235946,-0.00016006,-0.00057469,0.11761714,-0.
 11528864,0.19093435,-0.00061745,-0.00002833,-0.00056428,-0.00028142,0.
 00191364,-0.00104864,-0.00251323,-0.00153134,0.00056910,-0.01985782,-0
 .00850470,0.00454887,0.00002447,0.00213354,-0.00033950,-0.00059517,-0.
 00020816,0.00009165,0.00040481,0.00064915,0.00107302,0.00272813,-0.000
 84267,-0.00090008,-0.22822738,-0.07248638,0.07403618,-0.00023556,-0.00
 050406,0.00036011,-0.00001521,-0.00009733,-0.00001075,0.00021617,-0.00
 002584,-0.00007422,0.00036198,0.00000462,-0.00020471,0.00072764,0.0005
 6476,-0.00020638,0.00028887,-0.00005366,-0.00042111,0.00002529,-0.0000
 2854,-0.00006030,-0.00020191,-0.00016054,0.00003194,-0.00022225,-0.000
 59967,-0.00012087,0.25369960,-0.00031352,0.00010522,-0.00038975,-0.000
 25487,-0.00001149,0.00020984,0.00087818,0.00019293,0.00084466,0.007481
 04,0.00256888,-0.00152695,-0.00013164,-0.00071306,0.00149482,-0.000039
 85,-0.00032155,-0.00005317,0.00152402,-0.00265389,0.00127614,-0.027956
 08,-0.01650685,0.00617510,-0.07721793,-0.06532041,0.02725948,0.0003752
 5,0.00001845,-0.00011943,0.00004599,0.00001053,-0.00001153,0.00010443,
 -0.00004097,0.00008221,-0.00015305,0.00014893,0.00017664,-0.00028085,0
 .00010504,-0.00023676,-0.00015657,-0.00001749,-0.00001240,-0.00009097,
 0.00002589,0.00005370,0.00162579,0.00010296,-0.00125255,0.00102222,-0.
 00004348,-0.00006087,0.08175727,0.07718232,-0.00059304,-0.00066995,-0.
 00125129,0.00099584,0.00155643,-0.00022757,-0.00096968,-0.00046966,0.0
 0045104,-0.01723627,-0.00783083,0.00352902,0.00074191,-0.00229262,0.00
 056952,-0.00076702,-0.00029911,0.00131484,-0.00329873,0.00161319,-0.00
 298571,0.00237211,0.00390830,0.00030274,0.07225521,0.02417308,-0.06800
 288,0.00029200,-0.00018510,-0.00020466,0.00003795,0.00000627,-0.000047
 30,-0.00027460,0.00005462,0.00040791,-0.00002616,0.00015447,0.00008856
 ,0.00076232,0.00038540,0.00071782,0.00063007,0.00009956,-0.00056350,-0
 .00009441,0.00000687,0.00007326,0.00031960,-0.00000875,-0.00025092,-0.
 00023151,0.00038819,0.00023328,-0.07956532,-0.02985721,0.07568870,0.00
 014764,-0.00006981,0.00027415,-0.00082299,-0.00057770,-0.00020140,-0.0
 0065151,-0.00073774,-0.00201744,0.00248535,-0.01206159,-0.01681486,-0.
 00328123,0.00237461,-0.00402615,0.00024976,0.00027019,-0.00008856,0.00
 180533,-0.00007872,0.00081047,-0.00245684,-0.00258055,0.00088110,-0.05
 081244,0.02598115,0.04386072,-0.00031640,0.00021481,0.00023309,0.00000
 833,0.00003885,0.00003902,-0.00025786,-0.00037634,0.00006515,-0.000242
 08,0.00032456,-0.00016414,-0.00015652,0.00030363,0.00031340,-0.0002548
 1,-0.00114080,-0.00044335,0.00012148,0.00000417,-0.00003992,0.00023466
 ,-0.00020807,-0.00017548,-0.00004449,0.00003548,0.00006983,-0.00560015
 ,0.01159329,0.02472230,0.05983203,-0.00029001,-0.00023154,-0.00046931,
 -0.00008852,0.00008038,-0.00032898,0.00012675,0.00054379,0.00071992,-0
 .00320298,0.00342300,0.00680151,0.00251829,-0.00047115,0.00088568,-0.0
 0008625,-0.00022387,0.00029348,0.00062954,-0.00607992,0.00013943,0.004
 18698,-0.00935505,-0.02881864,0.02358393,-0.09441156,-0.10017175,0.000
 19526,-0.00006722,-0.00010752,0.00001992,0.00001048,-0.00001099,-0.000
 31129,-0.00019952,0.00044506,-0.00003678,0.00005652,0.00015381,-0.0000
 3624,-0.00006464,-0.00023162,0.00013874,0.00044459,-0.00017640,-0.0000
 6317,0.00000852,0.00006836,-0.00199437,-0.00049939,-0.00037234,-0.0003
 0839,0.00052510,0.00104619,-0.00179617,0.00499122,0.00941494,-0.023231
 19,0.10142789,0.00005510,-0.00028007,-0.00035218,0.00075328,0.00043168
 ,0.00094248,0.00191763,0.00002672,-0.00084801,0.00514194,-0.00856759,-
 0.01360713,-0.00201623,-0.00048280,-0.00272038,0.00045273,-0.00011711,
 0.00064955,0.00008076,0.00183493,-0.00169953,-0.00105687,0.00186979,0.
 00546033,0.04076445,-0.10085155,-0.25273998,0.00019417,0.00050822,-0.0
 0024241,0.00005597,0.00002850,-0.00003705,-0.00006339,0.00011789,0.000
 45115,-0.00057962,0.00044536,0.00053247,-0.00051823,0.00030474,-0.0002
 0645,-0.00075901,-0.00099054,0.00009966,-0.00018062,0.00004940,0.00012
 346,0.00021695,0.00001629,0.00012301,-0.00003892,-0.00075334,0.0000155
 1,0.00300003,-0.00417904,-0.00972862,-0.04733708,0.11064336,0.27374618
 ,0.00040495,-0.00064892,0.00107322,0.00002450,-0.00213364,-0.00033927,
 -0.01985779,0.00850441,0.00454778,-0.00251332,0.00153141,0.00056898,-0
 .00028145,-0.00191375,-0.00104848,0.00272717,0.00084314,-0.00089992,-0
 .00061745,0.00002823,-0.00056423,-0.00059512,0.00020814,0.00009158,-0.
 00023558,0.00050410,0.00036010,-0.22823335,0.07248886,0.07402923,-0.00
 020187,0.00016053,0.00003188,0.00028888,0.00005362,-0.00042112,0.00072
 762,-0.00056476,-0.00020634,0.00036200,-0.00000463,-0.00020472,0.00021
 618,0.00002584,-0.00007423,-0.00022223,0.00059965,-0.00012093,-0.00001
 522,0.00009733,-0.00001076,0.00002530,0.00002853,-0.00006031,-0.000078
 03,0.00013220,-0.00005409,-0.00003140,0.00002336,-0.00014065,0.2537062
 5,-0.00152414,-0.00265412,-0.00127615,0.00013172,-0.00071302,-0.001494
 69,-0.00748338,0.00256976,0.00152707,-0.00087832,0.00019287,-0.0008446
 9,0.00025499,-0.00001171,-0.00020985,0.02795680,-0.01650699,-0.0061732
 7,0.00031350,0.00010533,0.00038961,0.00003980,-0.00032155,0.00005332,-
 0.00037524,0.00001848,0.00011943,0.07722024,-0.06532058,-0.02725681,-0
 .00162576,0.00010306,0.00125243,0.00015663,-0.00001750,0.00001234,0.00
 028095,0.00010499,0.00023680,0.00015305,0.00014891,-0.00017666,-0.0001
 0446,-0.00004099,-0.00008217,-0.00102224,-0.00004352,0.00006087,-0.000
 04599,0.00001053,0.00001152,0.00009096,0.00002589,-0.00005370,-0.00013
 221,0.00011862,-0.00011178,-0.00005568,0.00005819,-0.00001531,-0.08175
 985,0.07718293,-0.00329854,-0.00161330,-0.00298548,0.00074174,0.002292
 84,0.00056946,-0.01723592,0.00783043,0.00352804,-0.00096963,0.00046971
 ,0.00045106,0.00099582,-0.00155648,-0.00022740,0.00236970,-0.00390677,
 0.00030366,-0.00059305,0.00066980,-0.00125136,-0.00076696,0.00029921,0
 .00131476,0.00029201,0.00018509,-0.00020468,0.07224771,-0.02417048,-0.
 06799694,0.00031975,0.00000872,-0.00025103,0.00063009,-0.00009961,-0.0
 0056350,0.00076231,-0.00038533,0.00071781,-0.00002617,-0.00015449,0.00
 008859,-0.00027459,-0.00005459,0.00040793,-0.00023141,-0.00038816,0.00
 023330,0.00003795,-0.00000628,-0.00004730,-0.00009442,-0.00000687,0.00
 007327,-0.00005409,0.00011176,-0.00008225,-0.00001848,0.00003631,-0.00
 003197,-0.07955746,0.02985402,0.07568192,0.00180535,0.00007903,0.00081
 048,-0.00328102,-0.00237508,-0.00402589,0.00248500,0.01206001,-0.01681
 563,-0.00065158,0.00073755,-0.00201753,-0.00082299,0.00057769,-0.00020
 148,-0.00245687,0.00258084,0.00087996,0.00014762,0.00006982,0.00027414
 ,0.00024976,-0.00027019,-0.00008853,-0.00031641,-0.00021480,0.00023312
 ,-0.05081187,-0.02597665,0.04386197,0.00023462,0.00020807,-0.00017551,
 -0.00025480,0.00114072,-0.00044348,-0.00015649,-0.00030360,0.00031345,
 -0.00024213,-0.00032459,-0.00016414,-0.00025792,0.00037636,0.00006514,
 -0.00004450,-0.00003550,0.00006987,0.00000833,-0.00003885,0.00003902,0
 .00012148,-0.00000417,-0.00003993,-0.00003140,0.00005568,-0.00001848,0
 .00004414,0.00002258,0.00005763,-0.00560006,-0.01159136,0.02472366,0.0
 5983175,-0.00062933,-0.00608018,-0.00013897,-0.00251855,-0.00047128,-0
 .00088606,0.00320355,0.00342363,-0.00680359,-0.00012661,0.00054369,-0.
 00072010,0.00008855,0.00008034,0.00032912,-0.00418706,-0.00935246,0.02
 881995,0.00029006,-0.00023146,0.00046927,0.00008629,-0.00022390,-0.000
 29340,-0.00019524,-0.00006725,0.00010752,-0.02357966,-0.09439473,0.100
 15819,0.00199436,-0.00049929,0.00037249,-0.00013885,0.00044474,0.00017
 635,0.00003621,-0.00006464,0.00023163,0.00003671,0.00005647,-0.0001537
 7,0.00031129,-0.00019959,-0.00044499,0.00030839,0.00052508,-0.00104623
 ,-0.00001992,0.00001048,0.00001099,0.00006315,0.00000852,-0.00006835,-
 0.00002337,0.00005819,-0.00003632,-0.00002257,0.00003417,-0.00003952,0
 .00179619,0.00499043,-0.00941551,0.02322643,0.10140907,0.00008090,-0.0
 0183449,-0.00169932,-0.00201607,0.00048251,-0.00272039,0.00514168,0.00
 856632,-0.01360737,0.00191759,-0.00002675,-0.00084792,0.00075327,-0.00
 043164,0.00094250,-0.00105646,-0.00186845,0.00545779,0.00005509,0.0002
 8007,-0.00035227,0.00045272,0.00011719,0.00064954,0.00019419,-0.000508
 25,-0.00024238,0.04076531,0.10083797,-0.25275800,0.00021674,-0.0000162
 2,0.00012299,-0.00075900,0.00099050,0.00009953,-0.00051821,-0.00030477
 ,-0.00020641,-0.00057960,-0.00044533,0.00053254,-0.00006339,-0.0001178
 4,0.00045112,-0.00003896,0.00075328,0.00001554,0.00005597,-0.00002850,
 -0.00003705,-0.00018063,-0.00004940,0.00012348,-0.00014065,0.00001531,
 -0.00003197,0.00005763,0.00003953,0.00006992,0.00299976,0.00417766,-0.
 00972788,-0.04733784,-0.11062870,0.27376602\\0.00033094,0.00066318,0.0
 0096072,0.00192259,-0.00104639,-0.00087994,0.00781369,-0.00040299,-0.0
 0621244,-0.00781409,-0.00040114,0.00621243,-0.00192267,-0.00104759,0.0
 0087998,0.00159604,0.00038719,-0.00066429,-0.00033126,0.00066339,-0.00
 096088,-0.00159524,0.00038641,0.00066430,-0.00083294,0.00029142,0.0006
 9882,0.00083272,0.00029085,-0.00069876,-0.00013638,0.00006239,0.000139
 13,-0.00005233,0.00002685,0.00005086,0.00003385,-0.00004663,-0.0000758
 5,-0.00003361,-0.00004726,0.00007615,0.00005231,0.00002703,-0.00005072
 ,0.00009315,-0.00000179,-0.00000163,0.00013637,0.00006245,-0.00013908,
 -0.00009331,-0.00000162,0.00000131,-0.00021222,0.00005048,-0.00031255,
 0.00021822,0.00001664,0.00012936,0.00021246,0.00005046,0.00031247,-0.0
 0021827,0.00001668,-0.00012938\\\@


 HIGGLEDY-PIGGLEDY
 NIC'LAUS COPERNICUS
 LOOKED AT THE UNIVERSE,
 SPOKE TO THE THRONG;
 GIVE UP YOUR PTOLOMY,
 RISE UP AND FOLLOW ME,
 HELIOCENTRICALLY
 PTOLEMY'S WRONG.
   -- NANCY L. STARK
 Job cpu time:       0 days  1 hours  4 minutes 16.8 seconds.
 Elapsed time:       0 days  0 hours  0 minutes 41.2 seconds.
 File lengths (MBytes):  RWF=    182 Int=      0 D2E=      0 Chk=     10 Scr=      1
 Normal termination of Gaussian 16 at Mon Jul 28 00:10:24 2025.
