 Entering Gaussian System, Link 0=g16
 Initial command:
 /home/hongchang/data/software/Gaussian/g16/l1.exe "/home/hongchang/data/software/Gaussian/g16/scratch/Gau-1376486.inp" -scrdir="/home/hongchang/data/software/Gaussian/g16/scratch/"
 Entering Link 1 = /home/hongchang/data/software/Gaussian/g16/l1.exe PID=   1376487.
  
 Copyright (c) 1988,1990,1992,1993,1995,1998,2003,2009,2016,
            Gaussian, Inc.  All Rights Reserved.
  
 This is part of the Gaussian(R) 16 program.  It is based on
 the Gaussian(R) 09 system (copyright 2009, Gaussian, Inc.),
 the Gaussian(R) 03 system (copyright 2003, Gaussian, Inc.),
 the Gaussian(R) 98 system (copyright 1998, Gaussian, Inc.),
 the Gaussian(R) 94 system (copyright 1995, Gaussian, Inc.),
 the Gaussian 92(TM) system (copyright 1992, Gaussian, Inc.),
 the Gaussian 90(TM) system (copyright 1990, Gaussian, Inc.),
 the Gaussian 88(TM) system (copyright 1988, Gaussian, Inc.),
 the Gaussian 86(TM) system (copyright 1986, Carnegie Mellon
 University), and the Gaussian 82(TM) system (copyright 1983,
 Carnegie Mellon University). Gaussian is a federally registered
 trademark of Gaussian, Inc.
  
 This software contains proprietary and confidential information,
 including trade secrets, belonging to Gaussian, Inc.
  
 This software is provided under written license and may be
 used, copied, transmitted, or stored only in accord with that
 written license.
  
 The following legend is applicable only to US Government
 contracts under FAR:
  
                    RESTRICTED RIGHTS LEGEND
  
 Use, reproduction and disclosure by the US Government is
 subject to restrictions as set forth in subparagraphs (a)
 and (c) of the Commercial Computer Software - Restricted
 Rights clause in FAR 52.227-19.
  
 Gaussian, Inc.
 340 Quinnipiac St., Bldg. 40, Wallingford CT 06492
  
  
 ---------------------------------------------------------------
 Warning -- This program may not be used in any manner that
 competes with the business of Gaussian, Inc. or will provide
 assistance to any competitor of Gaussian, Inc.  The licensee
 of this program is prohibited from giving any competitor of
 Gaussian, Inc. access to this program.  By using this program,
 the user acknowledges that Gaussian, Inc. is engaged in the
 business of creating and licensing software in the field of
 computational chemistry and represents and warrants to the
 licensee that it is not a competitor of Gaussian, Inc. and that
 it will not use this program in any manner prohibited above.
 ---------------------------------------------------------------
  

 Cite this work as:
 Gaussian 16, Revision A.03,
 M. J. Frisch, G. W. Trucks, H. B. Schlegel, G. E. Scuseria, 
 M. A. Robb, J. R. Cheeseman, G. Scalmani, V. Barone, 
 G. A. Petersson, H. Nakatsuji, X. Li, M. Caricato, A. V. Marenich, 
 J. Bloino, B. G. Janesko, R. Gomperts, B. Mennucci, H. P. Hratchian, 
 J. V. Ortiz, A. F. Izmaylov, J. L. Sonnenberg, D. Williams-Young, 
 F. Ding, F. Lipparini, F. Egidi, J. Goings, B. Peng, A. Petrone, 
 T. Henderson, D. Ranasinghe, V. G. Zakrzewski, J. Gao, N. Rega, 
 G. Zheng, W. Liang, M. Hada, M. Ehara, K. Toyota, R. Fukuda, 
 J. Hasegawa, M. Ishida, T. Nakajima, Y. Honda, O. Kitao, H. Nakai, 
 T. Vreven, K. Throssell, J. A. Montgomery, Jr., J. E. Peralta, 
 F. Ogliaro, M. J. Bearpark, J. J. Heyd, E. N. Brothers, K. N. Kudin, 
 V. N. Staroverov, T. A. Keith, R. Kobayashi, J. Normand, 
 K. Raghavachari, A. P. Rendell, J. C. Burant, S. S. Iyengar, 
 J. Tomasi, M. Cossi, J. M. Millam, M. Klene, C. Adamo, R. Cammi, 
 J. W. Ochterski, R. L. Martin, K. Morokuma, O. Farkas, 
 J. B. Foresman, and D. J. Fox, Gaussian, Inc., Wallingford CT, 2016.
 
 ******************************************
 Gaussian 16:  ES64L-G16RevA.03 25-Dec-2016
                28-Jul-2025 
 ******************************************
 %nprocshared=96
 Will use up to   96 processors via shared memory.
 %mem=600GB
 %chk=01_02_path2_10.chk
 -----------------------------------------------------------
 # freq b3lyp/6-311g(d,p) em=gd3bj scrf(solvent=Cis-Decalin)
 -----------------------------------------------------------
 1/10=4,30=1,38=1/1,3;
 2/12=2,17=6,18=5,40=1/2;
 3/5=4,6=6,7=101,11=2,25=1,30=1,70=2201,71=2,72=99,74=-5,124=41,140=1/1,2,3;
 4//1;
 5/5=2,38=5,53=99,98=1/2;
 8/6=4,10=90,11=11/1;
 11/6=1,8=1,9=11,15=111,16=1/1,2,10;
 10/6=1/2;
 6/7=2,8=2,9=2,10=2,28=1/1;
 7/8=1,10=1,25=1/1,2,3,16;
 1/10=4,30=1/3;
 99//99;
 --------------
 01_02_path2_10
 --------------
 Symbolic Z-matrix:
 Charge =  0 Multiplicity = 1
 C                    -1.35295  -1.15132   0.6817 
 C                    -0.67515  -0.12405   1.34607 
 C                    -0.6833    1.06841   0.47833 
 C                     0.68327   1.06837  -0.47843 
 C                     0.67513  -0.12419  -1.34604 
 C                    -1.8733   -0.68511  -0.50894 
 C                     1.35297  -1.15137  -0.68158 
 C                     1.87335  -0.68504   0.50899 
 C                     1.85758   0.81758   0.48362 
 C                    -1.8576    0.81751  -0.48371 
 H                    -1.38004  -2.18307   1.00962 
 H                    -0.25486  -0.1731    2.33867 
 H                    -0.68378   2.02916   0.99182 
 H                     0.68374   2.02906  -0.99202 
 H                     0.25485  -0.17333  -2.33865 
 H                    -2.4087   -1.27654  -1.23931 
 H                     1.38008  -2.18316  -1.00941 
 H                     2.40877  -1.27638   1.23941 
 H                     2.78812   1.19752   0.03841 
 H                     1.73524   1.29458   1.45814 
 H                    -2.78814   1.19746  -0.03853 
 H                    -1.73526   1.29443  -1.45827 
 

 GradGradGradGradGradGradGradGradGradGradGradGradGradGradGradGradGradGrad
 Berny optimization.
 Initialization pass.
 Trust Radius=3.00D-01 FncErr=1.00D-07 GrdErr=1.00D-07 EigMax=2.50D+02 EigMin=1.00D-04
 Number of steps in this run=      2 maximum allowed number of steps=      2.
 GradGradGradGradGradGradGradGradGradGradGradGradGradGradGradGradGradGrad

                          Input orientation:                          
 ---------------------------------------------------------------------
 Center     Atomic      Atomic             Coordinates (Angstroms)
 Number     Number       Type             X           Y           Z
 ---------------------------------------------------------------------
      1          6           0       -1.352946   -1.151319    0.681700
      2          6           0       -0.675152   -0.124054    1.346065
      3          6           0       -0.683296    1.068413    0.478329
      4          6           0        0.683268    1.068368   -0.478427
      5          6           0        0.675127   -0.124189   -1.346039
      6          6           0       -1.873304   -0.685113   -0.508935
      7          6           0        1.352967   -1.151373   -0.681583
      8          6           0        1.873346   -0.685035    0.508985
      9          6           0        1.857584    0.817583    0.483622
     10          6           0       -1.857595    0.817508   -0.483708
     11          1           0       -1.380042   -2.183071    1.009625
     12          1           0       -0.254859   -0.173097    2.338673
     13          1           0       -0.683784    2.029158    0.991819
     14          1           0        0.683741    2.029057   -0.992020
     15          1           0        0.254848   -0.173333   -2.338648
     16          1           0       -2.408704   -1.276539   -1.239308
     17          1           0        1.380082   -2.183157   -1.009405
     18          1           0        2.408772   -1.276376    1.239409
     19          1           0        2.788117    1.197523    0.038407
     20          1           0        1.735243    1.294584    1.458138
     21          1           0       -2.788144    1.197457   -0.038533
     22          1           0       -1.735261    1.294426   -1.458266
 ---------------------------------------------------------------------
                    Distance matrix (angstroms):
                    1          2          3          4          5
     1  C    0.000000
     2  C    1.398592   0.000000
     3  C    2.327445   1.474791   0.000000
     4  C    3.227859   2.568257   1.668196   0.000000
     5  C    3.046277   3.011757   2.568254   1.474791   0.000000
     6  C    1.380483   2.278460   2.337876   3.100272   2.740416
     7  C    3.029935   3.046310   3.227881   2.327449   1.398598
     8  C    3.264385   2.740483   3.100313   2.337882   2.278462
     9  C    3.771381   2.836413   2.553236   1.538652   2.373352
    10  C    2.342888   2.373348   1.538651   2.553222   2.836387
    11  H    1.082950   2.202184   3.367474   4.128366   3.743243
    12  H    2.215462   1.079038   2.277232   3.218287   3.800575
    13  H    3.264871   2.182175   1.089359   2.225662   3.456750
    14  H    4.130887   3.456750   2.225658   1.089358   2.182171
    15  H    3.558646   3.800584   3.218293   2.277232   1.079038
    16  H    2.195581   3.319274   3.380253   3.954468   3.293830
    17  H    3.375495   3.743278   4.128388   3.367477   2.202188
    18  H    3.804892   3.293905   3.954512   3.380259   3.319277
    19  H    4.804091   3.930746   3.501558   2.171218   2.851024
    20  H    4.015247   2.799125   2.619258   2.215425   3.316651
    21  H    2.845220   2.851007   2.171217   3.501553   3.930721
    22  H    3.272199   3.316653   2.215426   2.619250   2.799113
                    6          7          8          9         10
     6  C    0.000000
     7  C    3.264358   0.000000
     8  C    3.882467   1.380477   0.000000
     9  C    4.142800   2.342889   1.502915   0.000000
    10  C    1.502915   3.771386   4.142825   3.839047   0.000000
    11  H    2.189340   3.375489   3.616530   4.445540   3.385495
    12  H    3.315177   3.558662   2.852910   2.980785   3.393508
    13  H    3.321820   4.130909   3.760171   2.860897   2.241229
    14  H    3.760129   3.264869   3.321817   2.241226   2.860878
    15  H    2.852858   2.215467   3.315175   3.393506   2.980769
    16  H    1.081611   3.804851   4.662870   5.055200   2.293400
    17  H    3.616508   1.082950   2.189335   3.385495   4.445548
    18  H    4.662883   2.195577   1.081612   2.293401   5.055232
    19  H    5.056950   2.845233   2.145291   1.099301   4.690379
    20  H    4.561818   3.272193   2.199740   1.091869   4.111794
    21  H    2.145293   4.804094   5.056979   4.690388   1.099301
    22  H    2.199741   4.015261   4.561840   4.111793   1.091870
                   11         12         13         14         15
    11  H    0.000000
    12  H    2.659399   0.000000
    13  H    4.269422   2.616853   0.000000
    14  H    5.099785   4.101703   2.409511   0.000000
    15  H    4.233538   4.705011   4.101708   2.616845   0.000000
    16  H    2.633941   4.319558   4.345217   4.533358   3.085469
    17  H    3.419761   4.233556   5.099808   4.269419   2.659404
    18  H    3.902564   3.085537   4.533405   4.345215   4.319558
    19  H    5.453919   4.053335   3.695228   2.486288   3.734580
    20  H    4.690442   2.624869   2.570748   2.765571   4.331505
    21  H    3.809115   3.734576   2.486299   3.695224   4.053319
    22  H    4.278978   4.331508   2.765565   2.570727   2.624866
                   16         17         18         19         20
    16  H    0.000000
    17  H    3.902526   0.000000
    18  H    5.417759   2.633936   0.000000
    19  H    5.895802   3.809130   2.776056   0.000000
    20  H    5.573077   4.278971   2.666706   1.770198   0.000000
    21  H    2.776057   5.453921   5.895839   5.576792   4.765552
    22  H    2.666708   4.690461   5.573104   4.765540   4.533190
                   21         22
    21  H    0.000000
    22  H    1.770200   0.000000
 Stoichiometry    C10H12
 Framework group  C1[X(C10H12)]
 Deg. of freedom    60
 Full point group                 C1      NOp   1
 Largest Abelian subgroup         C1      NOp   1
 Largest concise Abelian subgroup C1      NOp   1
                         Standard orientation:                         
 ---------------------------------------------------------------------
 Center     Atomic      Atomic             Coordinates (Angstroms)
 Number     Number       Type             X           Y           Z
 ---------------------------------------------------------------------
      1          6           0        1.336756    1.163576    0.712900
      2          6           0        0.643714    0.136332    1.361377
      3          6           0        0.672001   -1.056160    0.494098
      4          6           0       -0.671978   -1.056139   -0.494133
      5          6           0       -0.643688    0.136394   -1.361356
      6          6           0        1.884619    0.697334   -0.465317
      7          6           0       -1.336771    1.163598   -0.712849
      8          6           0       -1.884658    0.697296    0.465328
      9          6           0       -1.868316   -0.805323    0.440381
     10          6           0        1.868323   -0.805286   -0.440419
     11          1           0        1.356233    2.195337    1.041337
     12          1           0        0.200485    0.185404    2.343956
     13          1           0        0.660562   -2.016890    1.007488
     14          1           0       -0.660528   -2.016842   -1.007571
     15          1           0       -0.200473    0.185508   -2.343940
     16          1           0        2.436837    1.288738   -1.183077
     17          1           0       -1.356263    2.195373   -1.041241
     18          1           0       -2.436898    1.288659    1.183105
     19          1           0       -2.788261   -1.185273   -0.026311
     20          1           0       -1.768639   -1.282296    1.417488
     21          1           0        2.788283   -1.185225    0.026255
     22          1           0        1.768651   -1.282231   -1.417541
 ---------------------------------------------------------------------
 Rotational constants (GHZ):           2.4204250           1.3813172           1.3096975
 Standard basis: 6-311G(d,p) (5D, 7F)
 There are   262 symmetry adapted cartesian basis functions of A   symmetry.
 There are   252 symmetry adapted basis functions of A   symmetry.
   252 basis functions,   416 primitive gaussians,   262 cartesian basis functions
    36 alpha electrons       36 beta electrons
       nuclear repulsion energy       526.6189125896 Hartrees.
 NAtoms=   22 NActive=   22 NUniq=   22 SFac= 1.00D+00 NAtFMM=   60 NAOKFM=F Big=F
 Integral buffers will be    131072 words long.
 Raffenetti 2 integral format.
 Two-electron integral symmetry is turned on.
 Nuclear repulsion after empirical dispersion term =      526.5728203446 Hartrees.
 Force inversion solution in PCM.
 ------------------------------------------------------------------------------
 Polarizable Continuum Model (PCM)
 =================================
 Model                : PCM.
 Atomic radii         : UFF (Universal Force Field).
 Polarization charges : Total charges.
 Charge compensation  : None.
 Solution method      : Matrix inversion.
 Cavity type          : Scaled VdW (van der Waals Surface) (Alpha=1.100).
 Cavity algorithm     : GePol (No added spheres)
                        Default sphere list used, NSphG=   22.
                        Lebedev-Laikov grids with approx.  5.0 points / Ang**2.
                        Smoothing algorithm: York/Karplus (Gamma=1.0000).
                        Polarization charges: spherical gaussians, with
                                              point-specific exponents (IZeta= 3).
                        Self-potential: point-specific (ISelfS= 7).
                        Self-field    : sphere-specific E.n sum rule (ISelfD= 2).
 1st derivatives      : Analytical E(r).r(x)/FMM algorithm (CHGder, D1EAlg=3).
                        Cavity 1st derivative terms included.
 2nd derivatives      : Analytical E(r).r(xy)/FMM algorithm (CHGder, D2EAlg=3).
                        Cavity 2nd derivative terms included.
 Solvent              : Cis-Decalin, Eps=   2.213900 Eps(inf)=   2.193361
 ------------------------------------------------------------------------------
 One-electron integrals computed using PRISM.
 NBasis=   252 RedAO= T EigKep=  4.95D-04  NBF=   252
 NBsUse=   252 1.00D-06 EigRej= -1.00D+00 NBFU=   252
 ExpMin= 1.03D-01 ExpMax= 4.56D+03 ExpMxC= 6.82D+02 IAcc=3 IRadAn=         5 AccDes= 0.00D+00
 Harris functional with IExCor=  402 and IRadAn=       5 diagonalized for initial guess.
 HarFok:  IExCor=  402 AccDes= 0.00D+00 IRadAn=         5 IDoV= 1 UseB2=F ITyADJ=14
 ICtDFT=  3500011 ScaDFX=  1.000000  1.000000  1.000000  1.000000
 FoFCou: FMM=F IPFlag=           0 FMFlag=      100000 FMFlg1=           0
         NFxFlg=           0 DoJE=T BraDBF=F KetDBF=T FulRan=T
         wScrn=  0.000000 ICntrl=       500 IOpCl=  0 I1Cent=   200000004 NGrid=           0
         NMat0=    1 NMatS0=      1 NMatT0=    0 NMatD0=    1 NMtDS0=    0 NMtDT0=    0
 Petite list used in FoFCou.
 Requested convergence on RMS density matrix=1.00D-08 within 128 cycles.
 Requested convergence on MAX density matrix=1.00D-06.
 Requested convergence on             energy=1.00D-06.
 No special actions if energy rises.
 Inv3:  Mode=1 IEnd=     7198203.
 Iteration    1 A*A^-1 deviation from unit magnitude is 7.77D-15 for    650.
 Iteration    1 A*A^-1 deviation from orthogonality  is 2.70D-15 for   1533   1038.
 Iteration    1 A^-1*A deviation from unit magnitude is 7.77D-15 for    650.
 Iteration    1 A^-1*A deviation from orthogonality  is 2.67D-15 for   1511    688.
 Error on total polarization charges =  0.00616
 SCF Done:  E(RB3LYP) =  -388.322811934     A.U. after   12 cycles
            NFock= 12  Conv=0.98D-08     -V/T= 2.0048
 DoSCS=F DFT=T ScalE2(SS,OS)=  1.000000  1.000000
 Range of M.O.s used for correlation:     1   252
 NBasis=   252 NAE=    36 NBE=    36 NFC=     0 NFV=     0
 NROrb=    252 NOA=    36 NOB=    36 NVA=   216 NVB=   216
 Symmetrizing basis deriv contribution to polar:
 IMax=3 JMax=2 DiffMx= 0.00D+00
 G2DrvN: will do    23 centers at a time, making    1 passes.
 Calling FoFCou, ICntrl=  3107 FMM=F I1Cent=   0 AccDes= 0.00D+00.
 NEqPCM:  Using equilibrium solvation (IEInf=0, Eps=   2.2139, EpsInf=   2.1934)
 G2PCM: DoFxE=T DoFxN=T DoGrad=T DoDP/DQ/DG/TGxP=FFFF NFrqRd=   0 IEInf=0 SqF1=F DoCFld=F IF1Alg=4.
 End of G2Drv F.D. properties file   721 does not exist.
 End of G2Drv F.D. properties file   722 does not exist.
 End of G2Drv F.D. properties file   788 does not exist.
          IDoAtm=1111111111111111111111
 NEqPCM:  Using equilibrium solvation (IEInf=0, Eps=   2.2139, EpsInf=   2.1934)
          Differentiating once with respect to electric field.
                with respect to dipole field.
          Differentiating once with respect to nuclear coordinates.
 Keep R1 ints in memory in canonical form, NReq=612588626.
          There are    69 degrees of freedom in the 1st order CPHF.  IDoFFX=6 NUNeed=     3.
     66 vectors produced by pass  0 Test12= 1.13D-14 1.45D-09 XBig12= 4.16D+02 1.86D+01.
 AX will form    66 AO Fock derivatives at one time.
     66 vectors produced by pass  1 Test12= 1.13D-14 1.45D-09 XBig12= 8.92D+01 1.48D+00.
     66 vectors produced by pass  2 Test12= 1.13D-14 1.45D-09 XBig12= 8.25D-01 1.34D-01.
     66 vectors produced by pass  3 Test12= 1.13D-14 1.45D-09 XBig12= 1.68D-03 5.50D-03.
     66 vectors produced by pass  4 Test12= 1.13D-14 1.45D-09 XBig12= 2.46D-06 2.30D-04.
     47 vectors produced by pass  5 Test12= 1.13D-14 1.45D-09 XBig12= 2.72D-09 7.44D-06.
      7 vectors produced by pass  6 Test12= 1.13D-14 1.45D-09 XBig12= 3.50D-12 2.04D-07.
      3 vectors produced by pass  7 Test12= 1.13D-14 1.45D-09 XBig12= 4.10D-15 6.66D-09.
 InvSVY:  IOpt=1 It=  1 EMax= 7.11D-15
 Solved reduced A of dimension   387 with    69 vectors.
 Isotropic polarizability for W=    0.000000      135.74 Bohr**3.
 End of Minotr F.D. properties file   721 does not exist.
 End of Minotr F.D. properties file   722 does not exist.
 End of Minotr F.D. properties file   788 does not exist.

 **********************************************************************

            Population analysis using the SCF density.

 **********************************************************************

 Orbital symmetries:
       Occupied  (A) (A) (A) (A) (A) (A) (A) (A) (A) (A) (A) (A)
                 (A) (A) (A) (A) (A) (A) (A) (A) (A) (A) (A) (A)
                 (A) (A) (A) (A) (A) (A) (A) (A) (A) (A) (A) (A)
       Virtual   (A) (A) (A) (A) (A) (A) (A) (A) (A) (A) (A) (A)
                 (A) (A) (A) (A) (A) (A) (A) (A) (A) (A) (A) (A)
                 (A) (A) (A) (A) (A) (A) (A) (A) (A) (A) (A) (A)
                 (A) (A) (A) (A) (A) (A) (A) (A) (A) (A) (A) (A)
                 (A) (A) (A) (A) (A) (A) (A) (A) (A) (A) (A) (A)
                 (A) (A) (A) (A) (A) (A) (A) (A) (A) (A) (A) (A)
                 (A) (A) (A) (A) (A) (A) (A) (A) (A) (A) (A) (A)
                 (A) (A) (A) (A) (A) (A) (A) (A) (A) (A) (A) (A)
                 (A) (A) (A) (A) (A) (A) (A) (A) (A) (A) (A) (A)
                 (A) (A) (A) (A) (A) (A) (A) (A) (A) (A) (A) (A)
                 (A) (A) (A) (A) (A) (A) (A) (A) (A) (A) (A) (A)
                 (A) (A) (A) (A) (A) (A) (A) (A) (A) (A) (A) (A)
                 (A) (A) (A) (A) (A) (A) (A) (A) (A) (A) (A) (A)
                 (A) (A) (A) (A) (A) (A) (A) (A) (A) (A) (A) (A)
                 (A) (A) (A) (A) (A) (A) (A) (A) (A) (A) (A) (A)
                 (A) (A) (A) (A) (A) (A) (A) (A) (A) (A) (A) (A)
                 (A) (A) (A) (A) (A) (A) (A) (A) (A) (A) (A) (A)
                 (A) (A) (A) (A) (A) (A) (A) (A) (A) (A) (A) (A)
 The electronic state is 1-A.
 Alpha  occ. eigenvalues --  -10.18007 -10.17998 -10.16822 -10.16822 -10.16754
 Alpha  occ. eigenvalues --  -10.16754 -10.16394 -10.16392 -10.16076 -10.16075
 Alpha  occ. eigenvalues --   -0.87436  -0.83382  -0.73065  -0.70812  -0.68919
 Alpha  occ. eigenvalues --   -0.67369  -0.57071  -0.54993  -0.53212  -0.51477
 Alpha  occ. eigenvalues --   -0.51371  -0.49516  -0.46013  -0.42390  -0.38920
 Alpha  occ. eigenvalues --   -0.38037  -0.37725  -0.36986  -0.36548  -0.35704
 Alpha  occ. eigenvalues --   -0.34621  -0.33174  -0.32233  -0.29556  -0.25383
 Alpha  occ. eigenvalues --   -0.17565
 Alpha virt. eigenvalues --   -0.04878   0.02172   0.04647   0.05591   0.07461
 Alpha virt. eigenvalues --    0.07731   0.07773   0.09694   0.09750   0.10601
 Alpha virt. eigenvalues --    0.11108   0.12957   0.14103   0.14535   0.15375
 Alpha virt. eigenvalues --    0.18738   0.19808   0.20865   0.21354   0.22645
 Alpha virt. eigenvalues --    0.25441   0.27808   0.30441   0.31090   0.31823
 Alpha virt. eigenvalues --    0.33113   0.35320   0.36438   0.37213   0.37638
 Alpha virt. eigenvalues --    0.39213   0.40624   0.41983   0.43088   0.43172
 Alpha virt. eigenvalues --    0.43989   0.45555   0.46157   0.47247   0.50312
 Alpha virt. eigenvalues --    0.51893   0.52076   0.54778   0.54949   0.55405
 Alpha virt. eigenvalues --    0.56341   0.58596   0.58936   0.59472   0.59511
 Alpha virt. eigenvalues --    0.60466   0.60819   0.62284   0.63413   0.63848
 Alpha virt. eigenvalues --    0.64380   0.65738   0.66050   0.67006   0.68634
 Alpha virt. eigenvalues --    0.70476   0.70786   0.72639   0.74849   0.75615
 Alpha virt. eigenvalues --    0.76793   0.81048   0.81884   0.84927   0.86077
 Alpha virt. eigenvalues --    0.88548   0.90106   0.92116   0.97676   0.99887
 Alpha virt. eigenvalues --    1.05229   1.06633   1.08789   1.12555   1.14603
 Alpha virt. eigenvalues --    1.17707   1.20995   1.21239   1.22440   1.23850
 Alpha virt. eigenvalues --    1.27388   1.36915   1.38344   1.42532   1.43038
 Alpha virt. eigenvalues --    1.45668   1.48677   1.49373   1.49925   1.50501
 Alpha virt. eigenvalues --    1.52468   1.53089   1.54164   1.55620   1.57420
 Alpha virt. eigenvalues --    1.58258   1.59833   1.60097   1.60324   1.61975
 Alpha virt. eigenvalues --    1.64416   1.66492   1.66821   1.68403   1.71679
 Alpha virt. eigenvalues --    1.72645   1.73295   1.74675   1.76107   1.77054
 Alpha virt. eigenvalues --    1.77547   1.80508   1.81477   1.82667   1.83272
 Alpha virt. eigenvalues --    1.84655   1.85609   1.85867   1.88517   1.89736
 Alpha virt. eigenvalues --    1.91886   1.93614   1.94397   1.97266   1.97774
 Alpha virt. eigenvalues --    2.01059   2.01590   2.03643   2.06728   2.09206
 Alpha virt. eigenvalues --    2.13290   2.13494   2.15460   2.15813   2.19894
 Alpha virt. eigenvalues --    2.21724   2.21817   2.27453   2.28048   2.32410
 Alpha virt. eigenvalues --    2.36560   2.36588   2.39447   2.41662   2.43539
 Alpha virt. eigenvalues --    2.45479   2.46495   2.47050   2.48376   2.49873
 Alpha virt. eigenvalues --    2.52226   2.60182   2.61615   2.61723   2.62889
 Alpha virt. eigenvalues --    2.66936   2.68088   2.68368   2.69013   2.71166
 Alpha virt. eigenvalues --    2.71299   2.74902   2.76471   2.76933   2.78002
 Alpha virt. eigenvalues --    2.80341   2.83034   2.87267   2.88460   2.90623
 Alpha virt. eigenvalues --    2.91876   2.93020   2.99585   3.02001   3.02295
 Alpha virt. eigenvalues --    3.07492   3.11701   3.11772   3.17398   3.19315
 Alpha virt. eigenvalues --    3.29084   3.31321   3.41183   3.41593   3.42413
 Alpha virt. eigenvalues --    3.45666   3.55377   3.58356   3.72791   3.77917
 Alpha virt. eigenvalues --    3.98421   4.04107   4.04416   4.07764   4.09938
 Alpha virt. eigenvalues --    4.12000   4.13403   4.21692   4.23735   4.47066
 Alpha virt. eigenvalues --    4.47904  23.64318  23.77517  23.86039  23.88555
 Alpha virt. eigenvalues --   23.93172  23.98211  24.04101  24.06785  24.17244
 Alpha virt. eigenvalues --   24.19196
          Condensed to atoms (all electrons):
               1          2          3          4          5          6
     1  C    4.860481   0.490910  -0.077754  -0.008378   0.007500   0.519413
     2  C    0.490910   5.138827   0.408143  -0.070935  -0.074169  -0.098982
     3  C   -0.077754   0.408143   5.156458   0.255799  -0.070936  -0.075462
     4  C   -0.008378  -0.070935   0.255799   5.156459   0.408142  -0.026085
     5  C    0.007500  -0.074169  -0.070936   0.408142   5.138838   0.073874
     6  C    0.519413  -0.098982  -0.075462  -0.026085   0.073874   5.131417
     7  C   -0.021569   0.007501  -0.008376  -0.077754   0.490899  -0.014414
     8  C   -0.014412   0.073862  -0.026082  -0.075462  -0.098980  -0.005778
     9  C    0.000038  -0.016735  -0.057290   0.378056  -0.088846   0.000994
    10  C   -0.085176  -0.088845   0.378055  -0.057291  -0.016737   0.361021
    11  H    0.422173  -0.044208   0.007019  -0.000328   0.000769  -0.045452
    12  H   -0.033677   0.416477  -0.037166  -0.000174   0.000354   0.006656
    13  H    0.007073  -0.037372   0.408000  -0.032215   0.007405   0.007560
    14  H   -0.000480   0.007405  -0.032215   0.408000  -0.037372  -0.000421
    15  H   -0.000743   0.000354  -0.000174  -0.037165   0.416476   0.001208
    16  H   -0.038563   0.008711   0.004982   0.000475  -0.001912   0.415881
    17  H    0.001622   0.000768  -0.000328   0.007019  -0.044208  -0.000009
    18  H    0.000213  -0.001911   0.000475   0.004982   0.008711   0.000077
    19  H   -0.000178   0.004745   0.007910  -0.034005   0.002095  -0.000345
    20  H    0.000906  -0.004323  -0.002161  -0.042984   0.009006   0.000089
    21  H   -0.002241   0.002095  -0.034005   0.007910   0.004746  -0.044327
    22  H    0.006538   0.009006  -0.042984  -0.002161  -0.004323  -0.039332
               7          8          9         10         11         12
     1  C   -0.021569  -0.014412   0.000038  -0.085176   0.422173  -0.033677
     2  C    0.007501   0.073862  -0.016735  -0.088845  -0.044208   0.416477
     3  C   -0.008376  -0.026082  -0.057290   0.378055   0.007019  -0.037166
     4  C   -0.077754  -0.075462   0.378056  -0.057291  -0.000328  -0.000174
     5  C    0.490899  -0.098980  -0.088846  -0.016737   0.000769   0.000354
     6  C   -0.014414  -0.005778   0.000994   0.361021  -0.045452   0.006656
     7  C    4.860478   0.519425  -0.085175   0.000038   0.001622  -0.000743
     8  C    0.519425   5.131407   0.361021   0.000994  -0.000009   0.001210
     9  C   -0.085175   0.361021   4.906905   0.007814  -0.000069  -0.000170
    10  C    0.000038   0.000994   0.007814   4.906908   0.007817   0.005742
    11  H    0.001622  -0.000009  -0.000069   0.007817   0.573137  -0.003561
    12  H   -0.000743   0.001210  -0.000170   0.005742  -0.003561   0.542772
    13  H   -0.000480  -0.000421  -0.004410  -0.028062  -0.000268  -0.003251
    14  H    0.007073   0.007560  -0.028062  -0.004410   0.000050  -0.000203
    15  H   -0.033676   0.006655   0.005742  -0.000171  -0.000055   0.000005
    16  H    0.000213   0.000077   0.000011  -0.036047  -0.004384  -0.000324
    17  H    0.422173  -0.045452   0.007817  -0.000069   0.000009  -0.000055
    18  H   -0.038563   0.415880  -0.036047   0.000011   0.000017   0.000384
    19  H   -0.002241  -0.044327   0.392705  -0.000348  -0.000004   0.000093
    20  H    0.006538  -0.039331   0.409665   0.000471  -0.000008  -0.000399
    21  H   -0.000178  -0.000345  -0.000348   0.392704  -0.000256  -0.000044
    22  H    0.000906   0.000089   0.000471   0.409665  -0.000264  -0.000315
              13         14         15         16         17         18
     1  C    0.007073  -0.000480  -0.000743  -0.038563   0.001622   0.000213
     2  C   -0.037372   0.007405   0.000354   0.008711   0.000768  -0.001911
     3  C    0.408000  -0.032215  -0.000174   0.004982  -0.000328   0.000475
     4  C   -0.032215   0.408000  -0.037165   0.000475   0.007019   0.004982
     5  C    0.007405  -0.037372   0.416476  -0.001912  -0.044208   0.008711
     6  C    0.007560  -0.000421   0.001208   0.415881  -0.000009   0.000077
     7  C   -0.000480   0.007073  -0.033676   0.000213   0.422173  -0.038563
     8  C   -0.000421   0.007560   0.006655   0.000077  -0.045452   0.415880
     9  C   -0.004410  -0.028062   0.005742   0.000011   0.007817  -0.036047
    10  C   -0.028062  -0.004410  -0.000171  -0.036047  -0.000069   0.000011
    11  H   -0.000268   0.000050  -0.000055  -0.004384   0.000009   0.000017
    12  H   -0.003251  -0.000203   0.000005  -0.000324  -0.000055   0.000384
    13  H    0.559204  -0.005647  -0.000203  -0.000388   0.000050   0.000032
    14  H   -0.005647   0.559203  -0.003251   0.000032  -0.000268  -0.000388
    15  H   -0.000203  -0.003251   0.542770   0.000384  -0.003561  -0.000324
    16  H   -0.000388   0.000032   0.000384   0.558350   0.000017   0.000001
    17  H    0.000050  -0.000268  -0.003561   0.000017   0.573137  -0.004384
    18  H    0.000032  -0.000388  -0.000324   0.000001  -0.004384   0.558351
    19  H   -0.000375  -0.003429  -0.000044   0.000000  -0.000256   0.000437
    20  H    0.002953  -0.000795  -0.000315  -0.000006  -0.000264  -0.002289
    21  H   -0.003429  -0.000375   0.000093   0.000437  -0.000004   0.000000
    22  H   -0.000795   0.002952  -0.000399  -0.002290  -0.000008  -0.000006
              19         20         21         22
     1  C   -0.000178   0.000906  -0.002241   0.006538
     2  C    0.004745  -0.004323   0.002095   0.009006
     3  C    0.007910  -0.002161  -0.034005  -0.042984
     4  C   -0.034005  -0.042984   0.007910  -0.002161
     5  C    0.002095   0.009006   0.004746  -0.004323
     6  C   -0.000345   0.000089  -0.044327  -0.039332
     7  C   -0.002241   0.006538  -0.000178   0.000906
     8  C   -0.044327  -0.039331  -0.000345   0.000089
     9  C    0.392705   0.409665  -0.000348   0.000471
    10  C   -0.000348   0.000471   0.392704   0.409665
    11  H   -0.000004  -0.000008  -0.000256  -0.000264
    12  H    0.000093  -0.000399  -0.000044  -0.000315
    13  H   -0.000375   0.002953  -0.003429  -0.000795
    14  H   -0.003429  -0.000795  -0.000375   0.002952
    15  H   -0.000044  -0.000315   0.000093  -0.000399
    16  H    0.000000  -0.000006   0.000437  -0.002290
    17  H   -0.000256  -0.000264  -0.000004  -0.000008
    18  H    0.000437  -0.002289   0.000000  -0.000006
    19  H    0.587454  -0.033376  -0.000023  -0.000021
    20  H   -0.033376   0.583645  -0.000021  -0.000032
    21  H   -0.000023  -0.000021   0.587454  -0.033376
    22  H   -0.000021  -0.000032  -0.033376   0.583645
 Mulliken charges:
               1
     1  C   -0.033695
     2  C   -0.131325
     3  C   -0.161905
     4  C   -0.161905
     5  C   -0.131332
     6  C   -0.167580
     7  C   -0.033695
     8  C   -0.167578
     9  C   -0.154086
    10  C   -0.154085
    11  H    0.086254
    12  H    0.106392
    13  H    0.125039
    14  H    0.125040
    15  H    0.106395
    16  H    0.094342
    17  H    0.086254
    18  H    0.094342
    19  H    0.123532
    20  H    0.113032
    21  H    0.123532
    22  H    0.113032
 Sum of Mulliken charges =  -0.00000
 Mulliken charges with hydrogens summed into heavy atoms:
               1
     1  C    0.052559
     2  C   -0.024933
     3  C   -0.036867
     4  C   -0.036865
     5  C   -0.024937
     6  C   -0.073238
     7  C    0.052560
     8  C   -0.073236
     9  C    0.082478
    10  C    0.082479
 APT charges:
               1
     1  C   -0.026266
     2  C   -0.115941
     3  C    0.085556
     4  C    0.085543
     5  C   -0.115927
     6  C   -0.001393
     7  C   -0.026267
     8  C   -0.001404
     9  C    0.041312
    10  C    0.041312
    11  H    0.039134
    12  H    0.044289
    13  H   -0.018788
    14  H   -0.018787
    15  H    0.044284
    16  H    0.005359
    17  H    0.039133
    18  H    0.005365
    19  H   -0.048637
    20  H   -0.004619
    21  H   -0.048639
    22  H   -0.004619
 Sum of APT charges =   0.00000
 APT charges with hydrogens summed into heavy atoms:
               1
     1  C    0.012868
     2  C   -0.071652
     3  C    0.066768
     4  C    0.066756
     5  C   -0.071643
     6  C    0.003966
     7  C    0.012866
     8  C    0.003961
     9  C   -0.011944
    10  C   -0.011946
 Electronic spatial extent (au):  <R**2>=           1146.5089
 Charge=             -0.0000 electrons
 Dipole moment (field-independent basis, Debye):
    X=             -0.0000    Y=             -0.4278    Z=             -0.0000  Tot=              0.4278
 Quadrupole moment (field-independent basis, Debye-Ang):
   XX=            -62.5320   YY=            -57.5570   ZZ=            -59.8464
   XY=              0.0001   XZ=             -3.3459   YZ=              0.0000
 Traceless Quadrupole moment (field-independent basis, Debye-Ang):
   XX=             -2.5536   YY=              2.4215   ZZ=              0.1321
   XY=              0.0001   XZ=             -3.3459   YZ=              0.0000
 Octapole moment (field-independent basis, Debye-Ang**2):
  XXX=             -0.0002  YYY=              3.5657  ZZZ=             -0.0001  XYY=             -0.0000
  XXY=             -0.6065  XXZ=             -0.0000  XZZ=             -0.0001  YZZ=              0.6016
  YYZ=             -0.0000  XYZ=             -1.2764
 Hexadecapole moment (field-independent basis, Debye-Ang**3):
 XXXX=           -864.2024 YYYY=           -391.3036 ZZZZ=           -342.8041 XXXY=              0.0001
 XXXZ=            -22.3608 YYYX=             -0.0000 YYYZ=              0.0001 ZZZX=            -16.2307
 ZZZY=              0.0000 XXYY=           -203.2890 XXZZ=           -205.8547 YYZZ=           -122.1754
 XXYZ=              0.0003 YYXZ=              0.2305 ZZXY=              0.0004
 N-N= 5.265728203446D+02 E-N=-1.953652903547D+03  KE= 3.864575524523D+02
  Exact polarizability: 173.618   0.000 115.361   0.223  -0.000 118.254
 Approx polarizability: 301.352   0.001 161.666  13.193  -0.002 201.885
 D2PCM: PCM CHGder 2nd derivatives, FixD1E=F FixD2E=F DoIter=F DoCFld=F I1PDM=0
 Calling FoFJK, ICntrl=    100127 FMM=F ISym2X=0 I1Cent= 0 IOpClX= 0 NMat=1 NMatS=1 NMatT=0.
 Full mass-weighted force constant matrix:
 Low frequencies --- -147.5357   -0.0007   -0.0005   -0.0005   13.5644   29.0363
 Low frequencies ---   29.5421  159.9221  179.8529
 ******    1 imaginary frequencies (negative Signs) ****** 
 Diagonal vibrational polarizability:
        8.8714227       1.7815162       6.7869219
 Harmonic frequencies (cm**-1), IR intensities (KM/Mole), Raman scattering
 activities (A**4/AMU), depolarization ratios for plane and unpolarized
 incident light, reduced masses (AMU), force constants (mDyne/A),
 and normal coordinates:
                      1                      2                      3
                      A                      A                      A
 Frequencies --   -147.4937               159.9220               179.8528
 Red. masses --      5.2952                 4.2030                 3.4417
 Frc consts  --      0.0679                 0.0633                 0.0656
 IR Inten    --      2.9035                 0.2096                 0.2581
  Atom  AN      X      Y      Z        X      Y      Z        X      Y      Z
     1   6     0.02   0.06  -0.01    -0.19  -0.02   0.05    -0.07   0.04  -0.15
     2   6    -0.22   0.10  -0.12    -0.09  -0.08   0.02    -0.08   0.12  -0.04
     3   6    -0.09   0.07  -0.08    -0.01  -0.07  -0.04    -0.07   0.03   0.06
     4   6    -0.09  -0.07  -0.08     0.01  -0.07   0.04     0.07   0.03  -0.06
     5   6    -0.22  -0.10  -0.12     0.09  -0.08  -0.02     0.08   0.12   0.04
     6   6     0.26   0.04   0.17    -0.26   0.08  -0.03    -0.08  -0.09  -0.11
     7   6     0.02  -0.06  -0.01     0.19  -0.02  -0.05     0.07   0.04   0.15
     8   6     0.26  -0.04   0.17     0.26   0.08   0.03     0.08  -0.09   0.11
     9   6     0.01  -0.03   0.03     0.05   0.07   0.04     0.01  -0.09  -0.11
    10   6     0.01   0.03   0.03    -0.05   0.07  -0.04    -0.01  -0.09   0.11
    11   1     0.04   0.06   0.00    -0.27  -0.03   0.08    -0.09   0.09  -0.29
    12   1    -0.10   0.04  -0.06    -0.02  -0.18   0.06    -0.03   0.20  -0.02
    13   1    -0.08   0.10  -0.03     0.09  -0.08  -0.05    -0.13   0.07   0.15
    14   1    -0.08  -0.10  -0.03    -0.09  -0.08   0.05     0.13   0.07  -0.15
    15   1    -0.10  -0.04  -0.06     0.02  -0.18  -0.06     0.03   0.20   0.02
    16   1     0.40   0.01   0.24    -0.38   0.17  -0.05    -0.09  -0.17  -0.18
    17   1     0.04  -0.06   0.00     0.27  -0.03  -0.08     0.09   0.09   0.29
    18   1     0.40  -0.01   0.24     0.38   0.17   0.05     0.09  -0.17   0.18
    19   1    -0.07   0.15   0.02    -0.01   0.19   0.06     0.02   0.02  -0.21
    20   1     0.00  -0.15  -0.03     0.01   0.07   0.04    -0.05  -0.24  -0.17
    21   1    -0.07  -0.15   0.02     0.01   0.19  -0.06    -0.02   0.02   0.21
    22   1     0.00   0.15  -0.03    -0.01   0.07  -0.04     0.05  -0.24   0.17
                      4                      5                      6
                      A                      A                      A
 Frequencies --    287.3443               351.9343               406.6626
 Red. masses --      3.0205                 3.4121                 2.7551
 Frc consts  --      0.1469                 0.2490                 0.2684
 IR Inten    --      0.0901                 0.0014                 0.0074
  Atom  AN      X      Y      Z        X      Y      Z        X      Y      Z
     1   6     0.15   0.05   0.06     0.14  -0.03   0.13     0.07   0.00   0.03
     2   6     0.05   0.09   0.04    -0.05   0.08   0.05     0.16  -0.04   0.10
     3   6    -0.05   0.08   0.04    -0.14   0.05  -0.00     0.05   0.00   0.08
     4   6    -0.05  -0.08   0.04     0.14   0.05   0.00    -0.05   0.00  -0.08
     5   6     0.05  -0.09   0.04     0.05   0.08  -0.05    -0.16  -0.04  -0.10
     6   6    -0.02   0.06  -0.02    -0.11  -0.04  -0.01    -0.09   0.02  -0.04
     7   6     0.15  -0.05   0.06    -0.14  -0.03  -0.13    -0.07   0.00  -0.03
     8   6    -0.02  -0.06  -0.02     0.11  -0.04   0.01     0.09   0.02   0.04
     9   6    -0.14  -0.06  -0.10     0.16  -0.04   0.02    -0.06   0.01  -0.11
    10   6    -0.14   0.06  -0.10    -0.16  -0.04  -0.02     0.06   0.01   0.11
    11   1     0.33   0.02   0.14     0.41  -0.07   0.22     0.09  -0.00   0.05
    12   1     0.15   0.08   0.08     0.09   0.03   0.12     0.31  -0.07   0.17
    13   1     0.03   0.11   0.09    -0.13   0.07   0.05    -0.03  -0.02   0.03
    14   1     0.03  -0.11   0.09     0.13   0.07  -0.05     0.03  -0.02  -0.03
    15   1     0.15  -0.08   0.08    -0.09   0.03  -0.12    -0.31  -0.07  -0.17
    16   1    -0.02   0.04  -0.04    -0.10  -0.07  -0.02    -0.20   0.01  -0.13
    17   1     0.33  -0.02   0.14    -0.41  -0.07  -0.22    -0.09  -0.00  -0.05
    18   1    -0.02  -0.04  -0.04     0.10  -0.07   0.02     0.20   0.01   0.13
    19   1    -0.10   0.04  -0.27     0.13  -0.08   0.09    -0.06   0.21  -0.27
    20   1    -0.32  -0.13  -0.12     0.26  -0.03   0.01    -0.21  -0.14  -0.18
    21   1    -0.10  -0.04  -0.27    -0.13  -0.08  -0.09     0.06   0.21   0.27
    22   1    -0.32   0.13  -0.12    -0.26  -0.03  -0.01     0.21  -0.14   0.18
                      7                      8                      9
                      A                      A                      A
 Frequencies --    439.0341               478.0184               609.3791
 Red. masses --      2.0122                 2.6505                 1.8781
 Frc consts  --      0.2285                 0.3568                 0.4109
 IR Inten    --      1.5018                 0.0044                 4.2603
  Atom  AN      X      Y      Z        X      Y      Z        X      Y      Z
     1   6     0.10  -0.01   0.06     0.08  -0.04   0.03    -0.05   0.05  -0.06
     2   6    -0.01   0.02  -0.04    -0.08   0.02  -0.11     0.10  -0.03   0.03
     3   6    -0.08   0.03  -0.08    -0.06  -0.03  -0.16    -0.09   0.01  -0.05
     4   6    -0.08  -0.03  -0.08     0.06  -0.03   0.16    -0.09  -0.01  -0.05
     5   6    -0.01  -0.02  -0.04     0.08   0.02   0.11     0.10   0.03   0.03
     6   6    -0.07   0.03  -0.05    -0.01   0.02  -0.07     0.05   0.03   0.02
     7   6     0.10   0.01   0.06    -0.08  -0.04  -0.03    -0.05  -0.05  -0.06
     8   6    -0.07  -0.03  -0.05     0.01   0.02   0.07     0.05  -0.03   0.02
     9   6     0.04  -0.03   0.08    -0.11   0.03  -0.01    -0.04  -0.02   0.04
    10   6     0.04   0.03   0.08     0.11   0.03   0.01    -0.04   0.02   0.04
    11   1     0.25  -0.05   0.17     0.22  -0.08   0.15    -0.08   0.05  -0.05
    12   1    -0.08   0.02  -0.07    -0.01  -0.07  -0.08     0.55  -0.16   0.24
    13   1    -0.11   0.04  -0.06     0.09   0.02  -0.05    -0.08  -0.00  -0.07
    14   1    -0.11  -0.04  -0.06    -0.09   0.02   0.05    -0.08   0.00  -0.07
    15   1    -0.08  -0.02  -0.07     0.01  -0.07   0.08     0.55   0.16   0.24
    16   1    -0.05   0.01  -0.05     0.04   0.04  -0.01     0.05  -0.01  -0.01
    17   1     0.25   0.05   0.17    -0.22  -0.08  -0.15    -0.08  -0.05  -0.05
    18   1    -0.05  -0.01  -0.05    -0.04   0.04   0.01     0.05   0.01  -0.01
    19   1    -0.04  -0.21   0.38    -0.03   0.19  -0.31    -0.12   0.01   0.17
    20   1     0.32   0.14   0.13    -0.42  -0.10  -0.04     0.09  -0.01   0.03
    21   1    -0.04   0.21   0.38     0.03   0.19   0.31    -0.12  -0.01   0.17
    22   1     0.32  -0.14   0.13     0.42  -0.10   0.04     0.09   0.01   0.03
                     10                     11                     12
                      A                      A                      A
 Frequencies --    633.4677               702.3649               711.9714
 Red. masses --      2.6573                 1.5372                 1.3166
 Frc consts  --      0.6283                 0.4468                 0.3932
 IR Inten    --      0.3837                41.9276                 2.9695
  Atom  AN      X      Y      Z        X      Y      Z        X      Y      Z
     1   6    -0.10   0.03  -0.04     0.01  -0.03   0.00    -0.03  -0.01  -0.04
     2   6     0.09  -0.02   0.05    -0.12   0.02  -0.02    -0.02  -0.01  -0.02
     3   6    -0.16   0.04  -0.14     0.04   0.01   0.01     0.03  -0.03   0.05
     4   6     0.16   0.04   0.14     0.04  -0.01   0.01    -0.03  -0.03  -0.05
     5   6    -0.09  -0.02  -0.05    -0.12  -0.02  -0.02     0.02  -0.01   0.02
     6   6     0.05  -0.01   0.04    -0.03  -0.03   0.00    -0.02   0.03  -0.04
     7   6     0.10   0.03   0.04     0.01   0.03   0.00     0.03  -0.01   0.04
     8   6    -0.05  -0.01  -0.04    -0.03   0.03   0.00     0.02   0.03   0.04
     9   6     0.05  -0.02  -0.01     0.05   0.02  -0.02     0.05   0.03  -0.01
    10   6    -0.05  -0.02   0.01     0.05  -0.02  -0.02    -0.05   0.03   0.01
    11   1    -0.13   0.03  -0.05     0.16  -0.04   0.03     0.18  -0.07   0.13
    12   1     0.45  -0.18   0.22     0.48  -0.24   0.27     0.21  -0.04   0.08
    13   1    -0.08   0.03  -0.13     0.04   0.04   0.07     0.03  -0.03   0.04
    14   1     0.08   0.03   0.13     0.04  -0.04   0.07    -0.03  -0.03  -0.04
    15   1    -0.45  -0.18  -0.22     0.48   0.24   0.27    -0.21  -0.04  -0.08
    16   1     0.11  -0.03   0.07    -0.23   0.03  -0.11     0.51  -0.05   0.29
    17   1     0.13   0.03   0.05     0.16   0.04   0.03    -0.18  -0.07  -0.13
    18   1    -0.11  -0.03  -0.07    -0.23  -0.03  -0.11    -0.51  -0.05  -0.29
    19   1     0.17  -0.12  -0.18     0.08  -0.02  -0.06     0.00   0.15  -0.02
    20   1    -0.07   0.03   0.02     0.01   0.05  -0.00     0.03  -0.06  -0.06
    21   1    -0.17  -0.12   0.18     0.08   0.02  -0.06    -0.00   0.15   0.02
    22   1     0.07   0.03  -0.02     0.01  -0.05  -0.00    -0.03  -0.06   0.06
                     13                     14                     15
                      A                      A                      A
 Frequencies --    715.3644               738.1760               793.8337
 Red. masses --      1.2629                 1.5576                 3.3978
 Frc consts  --      0.3808                 0.5001                 1.2616
 IR Inten    --     44.5436                 0.3929                 0.0003
  Atom  AN      X      Y      Z        X      Y      Z        X      Y      Z
     1   6    -0.03  -0.04  -0.03    -0.01   0.03   0.02     0.05   0.09  -0.01
     2   6    -0.02  -0.01   0.00    -0.08   0.06  -0.02     0.01  -0.03  -0.17
     3   6     0.03  -0.01   0.04     0.05  -0.01   0.02    -0.02  -0.16   0.04
     4   6     0.03   0.01   0.04    -0.05  -0.01  -0.02     0.02  -0.16  -0.04
     5   6    -0.02   0.01   0.00     0.08   0.06   0.02    -0.01  -0.03   0.17
     6   6    -0.02   0.02  -0.06     0.00  -0.03   0.04     0.07   0.07   0.04
     7   6    -0.03   0.04  -0.03     0.01   0.03  -0.02    -0.05   0.09   0.01
     8   6    -0.02  -0.02  -0.06    -0.00  -0.03  -0.04    -0.07   0.07  -0.04
     9   6    -0.02  -0.03  -0.00    -0.08  -0.04   0.03     0.13   0.04  -0.10
    10   6    -0.02   0.03  -0.00     0.08  -0.04  -0.03    -0.13   0.04   0.10
    11   1     0.20  -0.09   0.12     0.08   0.03   0.00    -0.10   0.05   0.12
    12   1     0.11  -0.01   0.06     0.51  -0.19   0.26     0.23  -0.09  -0.07
    13   1     0.05  -0.02   0.01     0.08   0.05   0.12     0.09  -0.09   0.16
    14   1     0.05   0.02   0.01    -0.08   0.05  -0.12    -0.09  -0.09  -0.16
    15   1     0.11   0.01   0.06    -0.51  -0.19  -0.26    -0.23  -0.09   0.07
    16   1     0.52  -0.03   0.32    -0.12   0.02  -0.02    -0.27  -0.07  -0.34
    17   1     0.20   0.09   0.12    -0.08   0.03  -0.00     0.10   0.05  -0.12
    18   1     0.52   0.03   0.32     0.12   0.02   0.02     0.27  -0.07   0.34
    19   1     0.02  -0.14   0.01    -0.13  -0.10   0.16     0.15  -0.02  -0.08
    20   1     0.00   0.09   0.05     0.03   0.07   0.07     0.10   0.13  -0.05
    21   1     0.02   0.14   0.01     0.13  -0.10  -0.16    -0.15  -0.02   0.08
    22   1     0.00  -0.09   0.05    -0.03   0.07  -0.07    -0.10   0.13   0.05
                     16                     17                     18
                      A                      A                      A
 Frequencies --    809.1869               828.5563               845.2133
 Red. masses --      3.8571                 3.7298                 4.5351
 Frc consts  --      1.4880                 1.5086                 1.9089
 IR Inten    --     15.8141                 1.6699                35.6021
  Atom  AN      X      Y      Z        X      Y      Z        X      Y      Z
     1   6     0.08  -0.15  -0.07    -0.01   0.19   0.07    -0.04  -0.14  -0.03
     2   6    -0.07  -0.08  -0.00     0.13   0.06  -0.05    -0.03   0.05   0.25
     3   6    -0.03  -0.07   0.12     0.04  -0.09  -0.08    -0.08   0.17  -0.05
     4   6    -0.03   0.07   0.12    -0.04  -0.09   0.08    -0.08  -0.17  -0.05
     5   6    -0.07   0.08  -0.00    -0.13   0.06   0.05    -0.03  -0.05   0.25
     6   6     0.14   0.10  -0.09    -0.15  -0.04   0.08     0.05  -0.06  -0.04
     7   6     0.08   0.15  -0.07     0.01   0.19  -0.07    -0.04   0.14  -0.03
     8   6     0.14  -0.10  -0.09     0.15  -0.04  -0.08     0.05   0.06  -0.04
     9   6    -0.06  -0.14   0.06    -0.02  -0.12   0.01     0.10  -0.04  -0.11
    10   6    -0.06   0.14   0.06     0.02  -0.12  -0.01     0.10   0.04  -0.11
    11   1    -0.21  -0.15  -0.06     0.07   0.20   0.06     0.04  -0.06  -0.28
    12   1     0.01   0.11   0.02    -0.20   0.05  -0.20    -0.18   0.23   0.18
    13   1     0.07  -0.15  -0.03     0.08  -0.00   0.10     0.02   0.10  -0.16
    14   1     0.07   0.15  -0.03    -0.08  -0.00  -0.10     0.02  -0.10  -0.16
    15   1     0.01  -0.11   0.02     0.20   0.05   0.20    -0.18  -0.23   0.18
    16   1    -0.25   0.17  -0.33     0.29  -0.20   0.28    -0.03   0.18   0.09
    17   1    -0.21   0.15  -0.06    -0.07   0.20  -0.06     0.04   0.06  -0.28
    18   1    -0.25  -0.17  -0.33    -0.29  -0.20  -0.28    -0.03  -0.18   0.09
    19   1    -0.06  -0.15   0.07    -0.08  -0.05   0.07    -0.01   0.01   0.08
    20   1    -0.08  -0.01   0.13    -0.07   0.02   0.08     0.20   0.04  -0.08
    21   1    -0.06   0.15   0.07     0.08  -0.05  -0.07    -0.01  -0.01   0.08
    22   1    -0.08   0.01   0.13     0.07   0.02  -0.08     0.20  -0.04  -0.08
                     19                     20                     21
                      A                      A                      A
 Frequencies --    906.1937               932.3735               935.0223
 Red. masses --      2.5793                 2.1042                 1.9567
 Frc consts  --      1.2480                 1.0777                 1.0079
 IR Inten    --      8.7571                13.1126                 0.2976
  Atom  AN      X      Y      Z        X      Y      Z        X      Y      Z
     1   6    -0.01   0.02   0.03    -0.03   0.00  -0.01     0.01   0.00  -0.01
     2   6    -0.02  -0.07  -0.10     0.02   0.00  -0.01    -0.03   0.04   0.06
     3   6     0.13   0.17  -0.02    -0.11  -0.04   0.06     0.08  -0.02  -0.04
     4   6    -0.13   0.17   0.02    -0.11   0.04   0.06    -0.08  -0.02   0.04
     5   6     0.02  -0.07   0.10     0.02  -0.00  -0.01     0.03   0.04  -0.06
     6   6    -0.01  -0.02   0.02     0.01   0.10  -0.03     0.00  -0.11   0.05
     7   6     0.01   0.02  -0.03    -0.03  -0.00  -0.01    -0.01   0.00   0.01
     8   6     0.01  -0.02  -0.02     0.01  -0.10  -0.03    -0.00  -0.11  -0.05
     9   6     0.07  -0.06  -0.01     0.12   0.07  -0.02     0.08   0.09   0.02
    10   6    -0.07  -0.06   0.01     0.12  -0.07  -0.02    -0.08   0.09  -0.02
    11   1    -0.01   0.00   0.09     0.07  -0.08   0.25     0.09   0.08  -0.25
    12   1    -0.03  -0.47  -0.09     0.04   0.17  -0.01     0.01   0.01   0.08
    13   1    -0.09   0.15  -0.09    -0.37   0.03   0.19     0.40  -0.09  -0.15
    14   1     0.09   0.15   0.09    -0.37  -0.03   0.19    -0.40  -0.09   0.15
    15   1     0.03  -0.47   0.09     0.04  -0.17  -0.01    -0.01   0.01  -0.08
    16   1    -0.06  -0.03  -0.03    -0.03   0.27   0.07    -0.03  -0.23  -0.06
    17   1     0.01   0.00  -0.09     0.07   0.08   0.25    -0.09   0.08   0.25
    18   1     0.06  -0.03   0.03    -0.03  -0.27   0.07     0.03  -0.23   0.06
    19   1     0.15  -0.02  -0.20     0.17   0.15  -0.20     0.13   0.19  -0.19
    20   1     0.03  -0.27  -0.11    -0.06  -0.01  -0.05    -0.19   0.06   0.03
    21   1    -0.15  -0.02   0.20     0.17  -0.15  -0.20    -0.13   0.19   0.19
    22   1    -0.03  -0.27   0.11    -0.06   0.01  -0.05     0.19   0.06  -0.03
                     22                     23                     24
                      A                      A                      A
 Frequencies --    951.3308               955.3698               966.1752
 Red. masses --      1.3524                 1.4041                 1.7041
 Frc consts  --      0.7211                 0.7551                 0.9372
 IR Inten    --      0.9632                13.0349                34.2807
  Atom  AN      X      Y      Z        X      Y      Z        X      Y      Z
     1   6     0.10  -0.02   0.04    -0.10   0.01  -0.04    -0.00  -0.03   0.04
     2   6    -0.02  -0.00  -0.02     0.03  -0.02   0.00     0.01  -0.03  -0.03
     3   6    -0.00   0.01  -0.01     0.03   0.03  -0.00     0.04   0.11  -0.01
     4   6     0.00   0.01   0.01     0.03  -0.03  -0.00     0.04  -0.11  -0.01
     5   6     0.02  -0.00   0.02     0.03   0.02   0.00     0.01   0.03  -0.03
     6   6    -0.04   0.01  -0.03     0.06  -0.01   0.02     0.02   0.06  -0.04
     7   6    -0.10  -0.02  -0.04    -0.10  -0.01  -0.04    -0.00   0.03   0.04
     8   6     0.04   0.01   0.03     0.06   0.01   0.02     0.02  -0.06  -0.04
     9   6    -0.00   0.01  -0.02    -0.03   0.00   0.00    -0.03   0.08   0.00
    10   6     0.00   0.01   0.02    -0.03  -0.00   0.00    -0.03  -0.08   0.00
    11   1    -0.53   0.11  -0.32     0.46  -0.13   0.35    -0.30  -0.03   0.06
    12   1     0.10  -0.08   0.04    -0.13   0.01  -0.07    -0.03  -0.22  -0.04
    13   1    -0.04  -0.01  -0.05     0.13   0.04   0.02     0.13   0.19   0.14
    14   1     0.04  -0.01   0.05     0.13  -0.04   0.02     0.13  -0.19   0.14
    15   1    -0.10  -0.08  -0.04    -0.13  -0.01  -0.07    -0.03   0.22  -0.04
    16   1     0.21  -0.05   0.11    -0.21   0.02  -0.16     0.02   0.21   0.07
    17   1     0.53   0.11   0.32     0.46   0.13   0.35    -0.30   0.03   0.06
    18   1    -0.21  -0.05  -0.11    -0.21  -0.02  -0.16     0.02  -0.21   0.07
    19   1    -0.03  -0.01   0.05    -0.08   0.05   0.08    -0.12   0.16   0.12
    20   1     0.06   0.05  -0.01    -0.01   0.06   0.03    -0.14   0.33   0.14
    21   1     0.03  -0.01  -0.05    -0.08  -0.05   0.08    -0.12  -0.16   0.12
    22   1    -0.06   0.05   0.01    -0.01  -0.06   0.03    -0.14  -0.33   0.14
                     25                     26                     27
                      A                      A                      A
 Frequencies --    983.2487               991.5299              1026.0251
 Red. masses --      1.8883                 1.8070                 1.6163
 Frc consts  --      1.0756                 1.0467                 1.0025
 IR Inten    --     11.3166                 0.5186                 0.0466
  Atom  AN      X      Y      Z        X      Y      Z        X      Y      Z
     1   6    -0.00  -0.03  -0.02    -0.01  -0.01  -0.03    -0.01  -0.00   0.01
     2   6     0.00  -0.03   0.01     0.01  -0.04  -0.03    -0.01   0.03   0.05
     3   6    -0.00   0.08  -0.06    -0.01   0.05  -0.04     0.05  -0.01  -0.08
     4   6    -0.00  -0.08  -0.06     0.01   0.05   0.04    -0.05  -0.01   0.08
     5   6     0.00   0.03   0.01    -0.01  -0.04   0.03     0.01   0.03  -0.05
     6   6    -0.03  -0.02  -0.05    -0.05  -0.07  -0.00     0.01   0.05  -0.05
     7   6    -0.00   0.03  -0.02     0.01  -0.01   0.03     0.01  -0.00  -0.01
     8   6    -0.03   0.02  -0.05     0.05  -0.07   0.00    -0.01   0.05   0.05
     9   6     0.05  -0.05   0.14    -0.05   0.09  -0.11    -0.00  -0.04  -0.09
    10   6     0.05   0.05   0.14     0.05   0.09   0.11     0.00  -0.04   0.09
    11   1     0.03  -0.05   0.04     0.19  -0.05   0.06    -0.02  -0.03   0.10
    12   1    -0.01  -0.09  -0.00    -0.05  -0.10  -0.06    -0.01   0.13   0.05
    13   1    -0.04   0.07  -0.08    -0.07   0.03  -0.09     0.40  -0.08  -0.19
    14   1    -0.04  -0.07  -0.08     0.07   0.03   0.09    -0.40  -0.08   0.19
    15   1    -0.01   0.09  -0.00     0.05  -0.10   0.06     0.01   0.13  -0.05
    16   1     0.08  -0.16  -0.08     0.06  -0.29  -0.10     0.01   0.10  -0.02
    17   1     0.03   0.05   0.04    -0.19  -0.05  -0.06     0.02  -0.03  -0.10
    18   1     0.08   0.16  -0.08    -0.06  -0.29   0.10    -0.01   0.10   0.02
    19   1     0.12   0.25  -0.27    -0.14  -0.11   0.23     0.05  -0.29   0.03
    20   1    -0.41  -0.28   0.07     0.22   0.40   0.02     0.31  -0.14  -0.16
    21   1     0.12  -0.25  -0.27     0.14  -0.11  -0.23    -0.05  -0.29  -0.03
    22   1    -0.41   0.28   0.07    -0.22   0.40  -0.02    -0.31  -0.14   0.16
                     28                     29                     30
                      A                      A                      A
 Frequencies --   1032.1036              1085.5297              1094.6779
 Red. masses --      1.7882                 1.1757                 1.2119
 Frc consts  --      1.1223                 0.8162                 0.8557
 IR Inten    --     37.3082                 7.6017                 0.3525
  Atom  AN      X      Y      Z        X      Y      Z        X      Y      Z
     1   6    -0.02  -0.05   0.00     0.02   0.04  -0.03    -0.03  -0.04   0.04
     2   6     0.05  -0.04  -0.08    -0.01  -0.05   0.03     0.02   0.03  -0.03
     3   6    -0.05   0.07   0.06    -0.02   0.00   0.02     0.02   0.03   0.00
     4   6    -0.05  -0.07   0.06    -0.02  -0.00   0.02    -0.02   0.03  -0.00
     5   6     0.05   0.04  -0.08    -0.01   0.05   0.03    -0.02   0.03   0.03
     6   6    -0.01  -0.07   0.03     0.01   0.02   0.00    -0.00  -0.03  -0.00
     7   6    -0.02   0.05   0.00     0.02  -0.04  -0.03     0.03  -0.04  -0.04
     8   6    -0.01   0.07   0.03     0.01  -0.02   0.00     0.00  -0.03   0.00
     9   6     0.02  -0.07  -0.04    -0.00  -0.00   0.00     0.00   0.00   0.02
    10   6     0.02   0.07  -0.04    -0.00   0.00   0.00    -0.00   0.00  -0.02
    11   1    -0.11  -0.07   0.05     0.26   0.13  -0.30    -0.32  -0.15   0.39
    12   1     0.00  -0.15  -0.10    -0.21  -0.42  -0.04     0.14   0.34   0.00
    13   1    -0.01   0.27   0.45    -0.14   0.03   0.07     0.04   0.05   0.03
    14   1    -0.01  -0.27   0.45    -0.14  -0.03   0.07    -0.04   0.05  -0.03
    15   1     0.00   0.15  -0.10    -0.21   0.42  -0.04    -0.14   0.34  -0.00
    16   1     0.01  -0.13   0.00    -0.02   0.10   0.04     0.05  -0.21  -0.11
    17   1    -0.11   0.07   0.05     0.26  -0.13  -0.30     0.32  -0.15  -0.39
    18   1     0.01   0.13   0.00    -0.02  -0.10   0.04    -0.05  -0.21   0.11
    19   1     0.02  -0.14   0.02     0.10  -0.15  -0.07     0.03   0.02  -0.04
    20   1     0.19  -0.22  -0.13    -0.05   0.09   0.05    -0.08   0.03   0.04
    21   1     0.02   0.14   0.02     0.10   0.15  -0.07    -0.03   0.02   0.04
    22   1     0.19   0.22  -0.13    -0.05  -0.09   0.05     0.08   0.03  -0.04
                     31                     32                     33
                      A                      A                      A
 Frequencies --   1109.4987              1110.8175              1136.3979
 Red. masses --      1.3634                 1.5434                 1.1064
 Frc consts  --      0.9888                 1.1221                 0.8418
 IR Inten    --      8.7774                 5.5002                 0.9131
  Atom  AN      X      Y      Z        X      Y      Z        X      Y      Z
     1   6     0.01  -0.06  -0.04     0.00  -0.08  -0.03    -0.01  -0.01   0.01
     2   6     0.03   0.01  -0.06     0.05   0.01  -0.07     0.02  -0.00   0.03
     3   6     0.01  -0.01  -0.01     0.01   0.02  -0.00    -0.03   0.01   0.01
     4   6     0.01   0.01  -0.01    -0.01   0.02   0.00     0.03   0.01  -0.01
     5   6     0.03  -0.01  -0.06    -0.05   0.01   0.07    -0.02  -0.00  -0.03
     6   6    -0.05  -0.01   0.06    -0.05  -0.03   0.06     0.02  -0.00  -0.04
     7   6     0.01   0.06  -0.04    -0.00  -0.08   0.03     0.01  -0.01  -0.01
     8   6    -0.05   0.01   0.06     0.05  -0.03  -0.06    -0.02  -0.00   0.04
     9   6    -0.01  -0.01   0.04     0.01   0.02  -0.03    -0.00   0.01   0.01
    10   6    -0.01   0.01   0.04    -0.01   0.02   0.03     0.00   0.01  -0.01
    11   1     0.17   0.00  -0.25     0.06  -0.05  -0.16    -0.07  -0.01   0.02
    12   1     0.08   0.17  -0.05     0.10   0.21  -0.07    -0.13  -0.24  -0.02
    13   1     0.13   0.01   0.02     0.16   0.12   0.18     0.33   0.25   0.48
    14   1     0.13  -0.01   0.02    -0.16   0.12  -0.18    -0.33   0.25  -0.48
    15   1     0.08  -0.17  -0.05    -0.10   0.21   0.07     0.13  -0.24   0.02
    16   1    -0.16   0.41   0.33    -0.15   0.37   0.33     0.07  -0.07  -0.06
    17   1     0.17  -0.00  -0.25    -0.06  -0.05   0.16     0.07  -0.01  -0.02
    18   1    -0.16  -0.41   0.33     0.15   0.38  -0.33    -0.07  -0.07   0.06
    19   1    -0.08   0.13   0.05     0.10  -0.13  -0.09     0.02  -0.04   0.00
    20   1    -0.06  -0.07   0.02     0.03   0.10   0.00    -0.00   0.01   0.01
    21   1    -0.08  -0.13   0.05    -0.10  -0.13   0.09    -0.02  -0.04  -0.00
    22   1    -0.06   0.07   0.02    -0.03   0.10  -0.00     0.00   0.01  -0.01
                     34                     35                     36
                      A                      A                      A
 Frequencies --   1148.2019              1167.7131              1253.6958
 Red. masses --      1.1903                 1.1554                 1.5635
 Frc consts  --      0.9246                 0.9283                 1.4479
 IR Inten    --     10.0324                 1.8097                 0.7368
  Atom  AN      X      Y      Z        X      Y      Z        X      Y      Z
     1   6    -0.01  -0.02   0.00    -0.01  -0.01   0.00     0.01   0.05   0.02
     2   6     0.02   0.00  -0.02     0.02   0.00  -0.02     0.00  -0.03  -0.02
     3   6     0.01   0.04  -0.03    -0.02   0.01  -0.04    -0.11  -0.01   0.03
     4   6     0.01  -0.04  -0.03     0.02   0.01   0.04    -0.11   0.01   0.03
     5   6     0.02  -0.00  -0.02    -0.02   0.00   0.02     0.00   0.03  -0.02
     6   6     0.02  -0.03   0.05     0.03  -0.02   0.04    -0.01  -0.03   0.00
     7   6    -0.01   0.02   0.00     0.01  -0.01  -0.00     0.01  -0.05   0.02
     8   6     0.02   0.03   0.05    -0.03  -0.02  -0.04    -0.01   0.03   0.00
     9   6    -0.02  -0.00   0.01     0.01   0.01  -0.01     0.07  -0.03  -0.03
    10   6    -0.02   0.00   0.01    -0.01   0.01   0.01     0.07   0.03  -0.03
    11   1    -0.08  -0.04   0.04    -0.03  -0.00  -0.03     0.01   0.05   0.02
    12   1     0.08   0.19  -0.01     0.04   0.04  -0.02     0.01   0.01  -0.02
    13   1    -0.17   0.03  -0.06     0.07   0.05   0.04     0.59  -0.08  -0.07
    14   1    -0.17  -0.03  -0.06    -0.07   0.05  -0.04     0.59   0.08  -0.07
    15   1     0.08  -0.19  -0.01    -0.04   0.04   0.02     0.01  -0.01  -0.02
    16   1    -0.08   0.01   0.02    -0.07   0.02   0.01     0.01  -0.05   0.00
    17   1    -0.08   0.04   0.04     0.03  -0.00   0.03     0.01  -0.05   0.02
    18   1    -0.08  -0.01   0.02     0.07   0.02  -0.01     0.01   0.05   0.00
    19   1     0.25  -0.43  -0.19    -0.29   0.43   0.23     0.08   0.01  -0.08
    20   1    -0.16   0.26   0.15     0.20  -0.28  -0.17    -0.15   0.25   0.13
    21   1     0.25   0.43  -0.19     0.29   0.43  -0.23     0.08  -0.01  -0.08
    22   1    -0.16  -0.26   0.15    -0.20  -0.28   0.17    -0.15  -0.25   0.13
                     37                     38                     39
                      A                      A                      A
 Frequencies --   1267.9015              1276.9757              1298.7923
 Red. masses --      2.1148                 1.5964                 1.3193
 Frc consts  --      2.0030                 1.5338                 1.3113
 IR Inten    --      2.6696                 7.2939                 0.5740
  Atom  AN      X      Y      Z        X      Y      Z        X      Y      Z
     1   6    -0.00  -0.06  -0.02     0.01  -0.02  -0.01    -0.02  -0.01   0.04
     2   6    -0.01   0.03   0.05    -0.01   0.00   0.04    -0.01  -0.04   0.02
     3   6     0.08  -0.00  -0.09    -0.02  -0.02  -0.06     0.02  -0.04  -0.06
     4   6    -0.08  -0.00   0.09    -0.02   0.02  -0.06     0.02   0.04  -0.06
     5   6     0.01   0.03  -0.05    -0.01  -0.00   0.04    -0.01   0.04   0.02
     6   6     0.02   0.06  -0.01     0.01   0.05  -0.01    -0.00   0.05   0.02
     7   6     0.00  -0.06   0.02     0.01   0.02  -0.01    -0.02   0.01   0.04
     8   6    -0.02   0.06   0.01     0.01  -0.05  -0.01    -0.00  -0.05   0.02
     9   6     0.09  -0.10  -0.08    -0.05   0.10   0.06     0.01  -0.03  -0.02
    10   6    -0.09  -0.10   0.08    -0.05  -0.10   0.06     0.01   0.03  -0.02
    11   1     0.01  -0.05  -0.04    -0.00  -0.02  -0.01     0.15   0.08  -0.26
    12   1    -0.02   0.02   0.05    -0.03   0.05   0.03     0.07   0.27   0.04
    13   1    -0.20   0.14   0.18     0.39   0.12   0.22    -0.03   0.18   0.37
    14   1     0.20   0.14  -0.18     0.39  -0.12   0.22    -0.03  -0.18   0.37
    15   1     0.02   0.02  -0.05    -0.03  -0.05   0.03     0.07  -0.27   0.04
    16   1    -0.01   0.06  -0.04     0.01   0.05  -0.02     0.07  -0.22  -0.14
    17   1    -0.01  -0.05   0.04    -0.00   0.02  -0.01     0.15  -0.08  -0.26
    18   1     0.01   0.06   0.04     0.01  -0.05  -0.02     0.07   0.22  -0.14
    19   1    -0.15   0.24   0.12     0.21  -0.24  -0.19    -0.08   0.11   0.05
    20   1    -0.25   0.38   0.20     0.18  -0.25  -0.14    -0.11   0.17   0.09
    21   1     0.15   0.24  -0.12     0.21   0.24  -0.19    -0.08  -0.11   0.05
    22   1     0.25   0.38  -0.20     0.18   0.25  -0.14    -0.11  -0.17   0.09
                     40                     41                     42
                      A                      A                      A
 Frequencies --   1300.7648              1354.4939              1358.0414
 Red. masses --      1.3216                 1.9918                 2.5604
 Frc consts  --      1.3175                 2.1530                 2.7822
 IR Inten    --      0.0536                 2.7745                10.3922
  Atom  AN      X      Y      Z        X      Y      Z        X      Y      Z
     1   6    -0.02  -0.02   0.03     0.01   0.01  -0.00    -0.02   0.00   0.02
     2   6    -0.01  -0.04   0.01    -0.03  -0.11  -0.03     0.02   0.13   0.05
     3   6     0.04  -0.02  -0.06    -0.06   0.08   0.05    -0.00  -0.14  -0.09
     4   6    -0.04  -0.02   0.06     0.06   0.08  -0.05    -0.00   0.14  -0.09
     5   6     0.01  -0.04  -0.01     0.03  -0.11   0.03     0.02  -0.13   0.05
     6   6    -0.01   0.05   0.02    -0.02   0.08   0.04     0.05  -0.09  -0.06
     7   6     0.02  -0.02  -0.03    -0.01   0.01   0.00    -0.02  -0.00   0.02
     8   6     0.01   0.05  -0.02     0.02   0.08  -0.04     0.05   0.09  -0.06
     9   6    -0.02   0.04   0.02    -0.00  -0.09   0.00    -0.01  -0.09   0.02
    10   6     0.02   0.04  -0.02     0.00  -0.09  -0.00    -0.01   0.09   0.02
    11   1     0.15   0.07  -0.25     0.13   0.07  -0.19    -0.15  -0.05   0.19
    12   1     0.08   0.28   0.04     0.09   0.27   0.00    -0.08  -0.29   0.03
    13   1    -0.24   0.15   0.26     0.43  -0.01  -0.12    -0.00   0.08   0.35
    14   1     0.24   0.15  -0.26    -0.43  -0.01   0.12    -0.00  -0.08   0.35
    15   1    -0.08   0.28  -0.04    -0.09   0.27  -0.00    -0.08   0.29   0.03
    16   1     0.06  -0.23  -0.15     0.06  -0.18  -0.12    -0.06   0.26   0.15
    17   1    -0.15   0.07   0.25    -0.13   0.07   0.19    -0.15   0.05   0.19
    18   1    -0.06  -0.23   0.15    -0.06  -0.18   0.12    -0.06  -0.26   0.15
    19   1     0.10  -0.12  -0.08    -0.09   0.09   0.04    -0.02   0.02  -0.04
    20   1     0.12  -0.17  -0.09    -0.12   0.12   0.12    -0.14   0.12   0.13
    21   1    -0.10  -0.12   0.08     0.09   0.09  -0.04    -0.02  -0.02  -0.04
    22   1    -0.12  -0.17   0.09     0.12   0.12  -0.12    -0.14  -0.12   0.13
                     43                     44                     45
                      A                      A                      A
 Frequencies --   1448.6034              1458.7128              1479.0348
 Red. masses --      2.7761                 2.2515                 1.2669
 Frc consts  --      3.4323                 2.8227                 1.6328
 IR Inten    --      9.7079                 3.3883                 7.6063
  Atom  AN      X      Y      Z        X      Y      Z        X      Y      Z
     1   6    -0.11  -0.10   0.15    -0.07  -0.12   0.07     0.00   0.04   0.01
     2   6     0.06   0.13  -0.08     0.07   0.12  -0.06    -0.02  -0.05   0.00
     3   6    -0.03  -0.00   0.04    -0.02  -0.00   0.04     0.01   0.02   0.00
     4   6    -0.03   0.00   0.04     0.02  -0.00  -0.04     0.01  -0.02   0.00
     5   6     0.06  -0.13  -0.08    -0.07   0.12   0.06    -0.02   0.05   0.00
     6   6     0.05   0.04  -0.04    -0.00   0.07   0.02     0.01  -0.03  -0.03
     7   6    -0.11   0.10   0.15     0.07  -0.12  -0.07     0.00  -0.04   0.01
     8   6     0.05  -0.04  -0.04     0.00   0.07  -0.02     0.01   0.03  -0.03
     9   6    -0.02   0.01   0.02     0.02   0.01  -0.01    -0.05  -0.04   0.03
    10   6    -0.02  -0.01   0.02    -0.02   0.01   0.01    -0.05   0.04   0.03
    11   1     0.20   0.05  -0.38     0.13  -0.04  -0.25     0.00   0.04   0.02
    12   1     0.05  -0.20  -0.09    -0.02  -0.24  -0.10     0.03   0.11   0.02
    13   1     0.04  -0.14  -0.22     0.04  -0.12  -0.18    -0.05   0.03   0.01
    14   1     0.04   0.14  -0.22    -0.04  -0.12   0.18    -0.05  -0.03   0.01
    15   1     0.05   0.20  -0.09     0.02  -0.24   0.10     0.03  -0.11   0.02
    16   1     0.05  -0.11  -0.17     0.07  -0.21  -0.16    -0.03   0.10   0.05
    17   1     0.20  -0.05  -0.38    -0.13  -0.04   0.25     0.00  -0.04   0.02
    18   1     0.05   0.11  -0.17    -0.07  -0.21   0.16    -0.03  -0.10   0.05
    19   1     0.08   0.05  -0.19    -0.05  -0.18   0.23     0.06   0.26  -0.38
    20   1     0.16   0.03   0.01    -0.25  -0.15  -0.05     0.45   0.19   0.07
    21   1     0.08  -0.05  -0.19     0.05  -0.18  -0.23     0.06  -0.26  -0.38
    22   1     0.16  -0.03   0.01     0.25  -0.15   0.05     0.45  -0.18   0.07
                     46                     47                     48
                      A                      A                      A
 Frequencies --   1479.7142              1489.1058              1515.4541
 Red. masses --      1.2838                 2.4857                 3.4614
 Frc consts  --      1.6562                 3.2475                 4.6836
 IR Inten    --      1.7401                 6.3783                 0.9493
  Atom  AN      X      Y      Z        X      Y      Z        X      Y      Z
     1   6     0.01   0.04   0.01     0.05  -0.08  -0.13     0.11  -0.04  -0.21
     2   6    -0.02  -0.05   0.01     0.03   0.09   0.02    -0.03   0.03   0.05
     3   6     0.00   0.01  -0.01    -0.01  -0.02  -0.01    -0.00  -0.01  -0.03
     4   6    -0.00   0.01   0.01    -0.01   0.02  -0.01     0.00  -0.01   0.03
     5   6     0.02  -0.05  -0.01     0.03  -0.09   0.02     0.03   0.03  -0.05
     6   6     0.01  -0.04  -0.03    -0.07   0.09   0.13    -0.09   0.09   0.17
     7   6    -0.01   0.04  -0.01     0.05   0.08  -0.13    -0.11  -0.04   0.21
     8   6    -0.01  -0.04   0.03    -0.07  -0.09   0.13     0.09   0.09  -0.17
     9   6     0.04   0.04  -0.03     0.00  -0.02  -0.01    -0.01   0.02   0.02
    10   6    -0.04   0.04   0.03     0.00   0.02  -0.01     0.01   0.02  -0.02
    11   1    -0.00   0.05   0.03    -0.09  -0.18   0.11    -0.17  -0.20   0.25
    12   1     0.04   0.13   0.03    -0.12  -0.25  -0.03    -0.09  -0.17   0.04
    13   1    -0.01   0.05   0.04     0.05  -0.02   0.00     0.02   0.02   0.03
    14   1     0.01   0.05  -0.04     0.05   0.02   0.00    -0.02   0.02  -0.03
    15   1    -0.04   0.13  -0.03    -0.12   0.25  -0.03     0.09  -0.17  -0.04
    16   1    -0.03   0.11   0.06     0.02  -0.28  -0.07    -0.01  -0.25  -0.01
    17   1     0.00   0.05  -0.03    -0.09   0.18   0.11     0.17  -0.20  -0.25
    18   1     0.03   0.11  -0.06     0.02   0.28  -0.07     0.01  -0.25   0.01
    19   1    -0.07  -0.25   0.39     0.01   0.22  -0.20     0.01  -0.19   0.13
    20   1    -0.43  -0.19  -0.08     0.19   0.28   0.10    -0.13  -0.26  -0.10
    21   1     0.07  -0.25  -0.39     0.01  -0.22  -0.20    -0.01  -0.19  -0.13
    22   1     0.43  -0.19   0.08     0.19  -0.28   0.10     0.13  -0.26   0.10
                     49                     50                     51
                      A                      A                      A
 Frequencies --   2986.6770              2986.9981              3075.4608
 Red. masses --      1.0707                 1.0711                 1.0905
 Frc consts  --      5.6274                 5.6305                 6.0774
 IR Inten    --    140.8096                25.1313                12.9354
  Atom  AN      X      Y      Z        X      Y      Z        X      Y      Z
     1   6     0.00   0.00  -0.00    -0.00  -0.00   0.00    -0.00   0.00   0.00
     2   6    -0.00  -0.00   0.00     0.00   0.00  -0.00     0.00   0.00  -0.00
     3   6     0.00  -0.00   0.00     0.00   0.00  -0.00    -0.00   0.01  -0.00
     4   6     0.00   0.00   0.00    -0.00   0.00   0.00     0.00   0.01   0.00
     5   6    -0.00   0.00   0.00    -0.00   0.00   0.00    -0.00   0.00   0.00
     6   6    -0.00   0.00  -0.00     0.00  -0.00   0.00    -0.00  -0.00   0.00
     7   6     0.00  -0.00  -0.00     0.00  -0.00  -0.00     0.00   0.00  -0.00
     8   6    -0.00  -0.00  -0.00    -0.00  -0.00  -0.00     0.00  -0.00  -0.00
     9   6    -0.05  -0.02  -0.01    -0.05  -0.02  -0.01     0.01  -0.02   0.06
    10   6    -0.05   0.02  -0.01     0.05  -0.02   0.01    -0.01  -0.02  -0.06
    11   1    -0.00  -0.00  -0.00     0.00   0.00   0.00     0.00  -0.00   0.00
    12   1    -0.00   0.00   0.00     0.00  -0.00   0.00    -0.00   0.00   0.01
    13   1    -0.00   0.03  -0.01     0.00  -0.03   0.02    -0.00  -0.07   0.04
    14   1    -0.00  -0.03  -0.01    -0.00  -0.04  -0.02     0.00  -0.07  -0.04
    15   1    -0.00  -0.00   0.00    -0.00  -0.00  -0.00     0.00   0.00  -0.01
    16   1    -0.00  -0.00   0.01     0.00   0.00  -0.01     0.01   0.01  -0.02
    17   1    -0.00   0.00  -0.00    -0.00   0.00  -0.00    -0.00  -0.00   0.00
    18   1    -0.00   0.00   0.01    -0.00   0.00   0.01    -0.01   0.01   0.02
    19   1     0.57   0.23   0.30     0.58   0.23   0.30    -0.10  -0.05  -0.04
    20   1    -0.03   0.05  -0.12    -0.03   0.05  -0.12    -0.07   0.30  -0.62
    21   1     0.58  -0.23   0.30    -0.57   0.23  -0.30     0.10  -0.05   0.04
    22   1    -0.03  -0.05  -0.13     0.03   0.05   0.12     0.07   0.30   0.62
                     52                     53                     54
                      A                      A                      A
 Frequencies --   3076.6928              3095.0643              3105.7572
 Red. masses --      1.0909                 1.0878                 1.0877
 Frc consts  --      6.0839                 6.1396                 6.1817
 IR Inten    --     43.6921                15.0822                66.9142
  Atom  AN      X      Y      Z        X      Y      Z        X      Y      Z
     1   6    -0.00   0.00  -0.00    -0.00  -0.00   0.00     0.00   0.00   0.00
     2   6    -0.00  -0.00   0.00     0.00   0.00  -0.00     0.00   0.00  -0.00
     3   6    -0.00  -0.00   0.00    -0.00  -0.05   0.03    -0.00  -0.05   0.03
     4   6    -0.00   0.00   0.00    -0.00   0.05   0.03     0.00  -0.05  -0.03
     5   6    -0.00   0.00   0.00     0.00  -0.00  -0.00    -0.00   0.00   0.00
     6   6    -0.00  -0.00   0.00    -0.00  -0.00   0.00    -0.00  -0.00   0.00
     7   6    -0.00  -0.00  -0.00    -0.00   0.00   0.00    -0.00   0.00  -0.00
     8   6    -0.00   0.00   0.00    -0.00   0.00   0.00     0.00  -0.00  -0.00
     9   6    -0.01   0.02  -0.06     0.00  -0.00   0.00    -0.00  -0.00   0.01
    10   6    -0.01  -0.02  -0.06     0.00   0.00   0.00     0.00  -0.00  -0.01
    11   1     0.00   0.00   0.00    -0.00   0.00   0.00    -0.00   0.00   0.00
    12   1     0.00  -0.00   0.00    -0.01  -0.00   0.03    -0.02  -0.00   0.04
    13   1     0.00   0.04  -0.02     0.01   0.62  -0.33     0.01   0.62  -0.32
    14   1     0.00  -0.04  -0.02     0.01  -0.62  -0.33    -0.01   0.62   0.32
    15   1     0.00   0.00   0.00    -0.01   0.00   0.03     0.02  -0.00  -0.04
    16   1     0.02   0.01  -0.02     0.00   0.00  -0.00     0.01   0.01  -0.01
    17   1     0.00  -0.00   0.00    -0.00  -0.00   0.00     0.00   0.00  -0.00
    18   1     0.02  -0.01  -0.02     0.00  -0.00  -0.00    -0.01   0.01   0.01
    19   1     0.10   0.05   0.04    -0.04  -0.01  -0.02     0.02   0.01   0.01
    20   1     0.07  -0.30   0.62    -0.00   0.02  -0.04    -0.01   0.03  -0.08
    21   1     0.10  -0.05   0.04    -0.04   0.01  -0.02    -0.02   0.01  -0.01
    22   1     0.07   0.30   0.62    -0.00  -0.02  -0.04     0.01   0.03   0.08
                     55                     56                     57
                      A                      A                      A
 Frequencies --   3182.1833              3183.8456              3208.6639
 Red. masses --      1.0885                 1.0888                 1.0967
 Frc consts  --      6.4942                 6.5030                 6.6525
 IR Inten    --     17.8042                13.7415                16.0492
  Atom  AN      X      Y      Z        X      Y      Z        X      Y      Z
     1   6    -0.00  -0.05  -0.02    -0.00  -0.05  -0.02    -0.00   0.02   0.01
     2   6    -0.00   0.00   0.01    -0.00   0.00   0.01     0.00  -0.00  -0.01
     3   6    -0.00  -0.00   0.00    -0.00  -0.00   0.00    -0.00  -0.00   0.00
     4   6    -0.00   0.00   0.00     0.00  -0.00  -0.00    -0.00   0.00   0.00
     5   6    -0.00  -0.00   0.01     0.00   0.00  -0.01     0.00   0.00  -0.01
     6   6     0.01   0.01  -0.01     0.01   0.01  -0.01     0.03   0.03  -0.04
     7   6    -0.00   0.05  -0.02     0.00  -0.05   0.02    -0.00  -0.02   0.01
     8   6     0.01  -0.01  -0.01    -0.01   0.01   0.01     0.03  -0.03  -0.04
     9   6    -0.00   0.00  -0.00     0.00  -0.00   0.00     0.00   0.00  -0.00
    10   6    -0.00  -0.00  -0.00    -0.00  -0.00  -0.00     0.00  -0.00  -0.00
    11   1     0.01   0.61   0.19     0.01   0.61   0.19    -0.00  -0.23  -0.08
    12   1     0.04  -0.01  -0.10     0.04  -0.01  -0.09    -0.05   0.01   0.12
    13   1     0.00   0.01  -0.00     0.00   0.01  -0.00     0.00   0.00  -0.00
    14   1     0.00  -0.01  -0.00    -0.00   0.01   0.00     0.00  -0.00  -0.00
    15   1     0.04   0.01  -0.10    -0.04  -0.01   0.09    -0.06  -0.01   0.13
    16   1    -0.14  -0.15   0.18    -0.14  -0.16   0.19    -0.32  -0.35   0.43
    17   1     0.01  -0.61   0.19    -0.01   0.61  -0.19    -0.00   0.24  -0.08
    18   1    -0.14   0.15   0.18     0.14  -0.16  -0.19    -0.33   0.35   0.44
    19   1     0.00  -0.00   0.00    -0.00  -0.00  -0.00    -0.00  -0.00  -0.00
    20   1     0.00  -0.00   0.01    -0.00   0.01  -0.01     0.00  -0.01   0.02
    21   1     0.00   0.00   0.00     0.00  -0.00   0.00    -0.00   0.00  -0.00
    22   1     0.00   0.00   0.01     0.00   0.01   0.01     0.00   0.01   0.02
                     58                     59                     60
                      A                      A                      A
 Frequencies --   3208.9144              3233.5918              3234.8604
[...]
 38459,-0.00103454,0.00081900,-0.00027255,-0.00222168,-0.00008012,-0.00
 099354,0.00030438,-0.00034050,0.00118006,0.00152412,-0.00089714,-0.001
 67225,-0.00058896,-0.00037281,-0.00028041,0.00035940,0.00085177,-0.000
 88691,0.00078053,-0.00053861,-0.00037251,0.12534136,-0.01636081,0.3127
 9818,0.00273580,-0.00004034,0.00111086,-0.00116724,-0.00401454,0.00204
 049,-0.04022308,0.00608954,-0.00965916,-0.00826085,0.01965957,0.016589
 77,-0.00330796,-0.00376167,0.00035884,-0.00344166,0.00057920,-0.004642
 89,-0.00056793,0.00110720,-0.00120577,-0.00059789,0.00098457,0.0014062
 5,0.00204018,0.00050316,0.00073074,0.00073128,-0.02111905,-0.00734583,
 0.00008548,-0.00022779,0.00007202,-0.00077433,0.00014160,0.00065391,0.
 04944208,0.00015332,-0.00394059,0.00177773,-0.00088232,-0.01738764,-0.
 01360485,0.00148079,-0.25847537,-0.11066789,-0.00093967,-0.00006486,0.
 00071177,-0.00039366,0.00079362,-0.00006704,0.00039421,-0.00056392,0.0
 0068340,-0.00009973,0.00067636,0.00024872,-0.00020001,-0.00034593,0.00
 049076,0.00003461,-0.00006299,-0.00029555,0.00099703,0.00041488,0.0010
 4787,-0.00127797,-0.00046949,-0.00017707,-0.00015859,0.00080859,0.0006
 3446,0.00132971,0.27701276,-0.00111411,0.00318373,-0.00332994,0.001673
 87,0.02027950,0.01172688,-0.00829039,-0.11372120,-0.10337265,0.0038980
 3,-0.01371854,-0.01018501,0.00272947,0.00119640,-0.00018151,-0.0031893
 1,-0.00095330,-0.00214079,-0.00029725,-0.00027046,-0.00070809,-0.00005
 657,0.00095369,-0.00015351,-0.00077208,-0.00010696,0.00024521,0.004345
 41,-0.01457971,-0.00650921,0.00107131,0.00051750,0.00022892,0.00047476
 ,-0.00137769,0.00010618,0.00119548,0.11903904,0.11217562,-0.00056808,-
 0.00110743,-0.00120587,-0.00330787,0.00376168,0.00035844,-0.00826080,-
 0.01965787,0.01659193,-0.04022253,-0.00608711,-0.00966036,-0.00116704,
 0.00401475,0.00204006,-0.00059806,-0.00098461,0.00140658,0.00273562,0.
 00004063,0.00111065,-0.00344172,-0.00057959,-0.00464267,0.00073083,0.0
 2111836,-0.00734831,0.00204022,-0.00050309,0.00073080,0.00037831,-0.00
 023730,-0.00035244,0.00015574,-0.00029198,0.00008082,0.00147789,0.0000
 7252,-0.00063202,0.04944237,0.00009968,0.00067635,-0.00024896,0.000393
 93,0.00079356,0.00006694,0.00093997,-0.00006368,-0.00071264,-0.0014783
 7,-0.25845251,0.11068545,0.00088283,-0.01738849,0.01360784,0.00020001,
 -0.00034613,-0.00049072,-0.00015341,-0.00394105,-0.00177766,-0.0003946
 1,-0.00056385,-0.00068359,-0.00099656,0.00041658,-0.00104867,-0.000034
 63,-0.00006298,0.00029560,-0.00005296,0.00006246,0.00004443,0.00003809
 ,-0.00003875,-0.00003085,-0.00007259,0.00106846,0.00006545,-0.00133309
 ,0.27698827,-0.00029722,0.00027034,-0.00070809,0.00272944,-0.00119656,
 -0.00018132,0.00389807,0.01371776,-0.01018672,-0.00829221,0.11373889,-
 0.10339664,0.00167413,-0.02027657,0.01172739,-0.00005657,-0.00095375,-
 0.00015346,-0.00111416,-0.00318361,-0.00332930,-0.00318917,0.00095294,
 -0.00214070,0.00434506,0.01457890,-0.00651068,-0.00077217,0.00010702,0
 .00024522,-0.00015034,0.00006418,0.00015866,-0.00006364,0.00020174,-0.
 00003134,-0.00063203,-0.00006556,0.00004095,0.00119765,-0.11905752,0.1
 1220133,-0.00123858,-0.00101750,-0.00346530,0.00276247,0.00234297,0.00
 152615,-0.00142509,-0.00112243,0.00134379,0.00241736,0.00018196,0.0017
 6352,-0.06852084,0.00359012,-0.11598867,-0.00393470,-0.00127053,0.0055
 4151,-0.00505340,-0.00287328,-0.01522711,0.00127568,0.00446003,0.00054
 252,0.00095098,-0.00023783,-0.00111784,0.00043952,-0.00048541,-0.00009
 527,0.00003620,-0.00002784,-0.00009818,-0.00045984,0.00021570,0.000080
 01,0.00015574,-0.00003809,-0.00006364,-0.00077434,0.00015864,0.0004747
 4,0.07494743,-0.00035636,-0.00023898,-0.00116335,0.00123851,0.00006104
 ,0.00091444,-0.00081377,-0.00084146,-0.00064609,-0.00981755,0.00553684
 ,-0.01820994,0.00644431,-0.05441033,-0.01741818,-0.00118349,-0.0006326
 3,0.00180703,0.00461152,0.00811785,0.01883533,0.00272149,-0.00316944,0
 .00305837,0.00105219,-0.00339136,-0.00335900,0.00052820,0.00012889,-0.
 00047346,0.00004685,-0.00000448,-0.00000223,-0.00021570,0.00005467,0.0
 0004534,0.00029202,-0.00003877,-0.00020176,-0.00014157,0.00080872,0.00
 137762,-0.00345774,0.04661055,0.00030446,0.00034065,0.00118030,-0.0010
 3464,-0.00081913,-0.00027268,0.00042097,0.00010763,-0.00038464,-0.0059
 3984,0.00485484,-0.00518311,-0.11879141,-0.01504026,-0.30182133,0.0015
 2448,0.00089722,-0.00167280,-0.00012065,-0.00560020,-0.00268862,-0.002
 22173,0.00008019,-0.00099411,0.00035930,-0.00085137,-0.00088648,-0.000
 58908,0.00037273,-0.00028038,-0.00000121,0.00000280,0.00002092,0.00008
 006,-0.00004535,0.00003075,0.00008079,0.00003084,-0.00003132,0.0006539
 3,-0.00063451,0.00010613,0.12533868,0.01638815,0.31279773,-0.00092942,
 -0.00613426,-0.00315391,0.00276997,0.00014316,-0.00465560,-0.00079696,
 -0.00040863,-0.00125317,0.00059407,0.00007055,0.00042093,-0.00020467,0
 .00018946,-0.00072572,-0.10554806,-0.08120083,-0.11207087,0.00054410,-
 0.00060166,0.00055677,-0.00015235,-0.00006028,-0.00060334,0.00016101,0
 .00061290,-0.00000594,0.00285310,0.00296431,0.00399360,-0.00247629,0.0
 0077642,0.00157874,0.00026758,-0.00113731,-0.00032017,0.00039189,-0.00
 011655,-0.00069868,-0.00004863,-0.00012418,-0.00007935,0.00000301,-0.0
 0014425,0.00023602,0.10296301,0.00724507,0.01018269,0.00840463,0.00067
 389,-0.00103799,0.00324255,0.00133681,-0.00549997,-0.00049385,0.000425
 30,-0.00004212,-0.00017164,0.00027250,-0.00020438,-0.00008141,-0.07993
 587,-0.14220467,-0.10668072,-0.00015747,0.00028164,-0.00013513,-0.0002
 6769,-0.00008264,0.00033745,-0.00004177,0.00015112,-0.00002012,-0.0142
 9287,-0.00462463,-0.01722023,-0.00007404,0.00021143,-0.00113186,0.0001
 2981,0.00091083,0.00028544,-0.00158308,-0.00001918,-0.00087818,0.00003
 410,0.00004466,-0.00004749,-0.00014189,-0.00001901,0.00014385,0.085788
 87,0.14142483,-0.01073104,-0.01782864,-0.00792414,-0.00297727,0.002037
 81,-0.00243894,0.00061704,0.00205213,0.00031143,-0.00013583,0.00002706
 ,-0.00027779,0.00007831,0.00009439,0.00075985,-0.10703677,-0.10228605,
 -0.17953354,-0.00035273,0.00022932,-0.00035309,0.00015274,0.00020159,0
 .00037848,-0.00003547,-0.00036139,0.00002822,0.00228761,0.00312530,0.0
 0244675,0.00192403,0.00010343,-0.00027162,-0.00085379,-0.00064344,-0.0
 0017467,-0.00007380,-0.00000719,0.00075864,-0.00001863,0.00007485,0.00
 010758,-0.00012865,0.00000565,0.00002015,0.11730488,0.11404403,0.18568
 445,0.00042555,-0.00016780,0.00043926,-0.00037817,-0.00005980,0.000089
 83,-0.00008765,-0.00138957,-0.00052770,0.00366475,0.00366612,-0.005128
 11,0.00100422,0.01510186,0.00604065,0.00061681,0.00009240,-0.00079282,
 -0.04150449,0.00668749,-0.00322092,0.00325615,-0.01248625,-0.00340764,
 0.00448332,0.00021956,-0.00579806,-0.00006757,0.00002831,0.00002148,-0
 .00015210,-0.00002874,0.00012452,0.00003619,-0.00004685,-0.00000120,0.
 00037826,0.00005294,-0.00015032,0.00008546,0.00127808,0.00107117,-0.00
 189808,-0.00113422,0.00078046,-0.00011220,0.00002502,0.00002350,0.0327
 4504,-0.00004486,-0.00020708,-0.00011507,-0.00021314,0.00023039,-0.000
 30339,-0.00040067,-0.00056554,0.00022928,0.00181552,-0.00191543,0.0011
 0186,-0.00306090,-0.01164773,-0.01018113,-0.00004368,0.00037897,0.0003
 3303,0.01039664,-0.31150514,-0.08179161,0.00185027,-0.00353991,0.00130
 894,0.00168000,0.00044672,-0.00153334,-0.00000555,-0.00004609,-0.00006
 054,0.00002875,0.00015382,-0.00006057,0.00002781,-0.00000448,-0.000002
 79,0.00023728,0.00006246,-0.00006418,0.00022779,-0.00046948,-0.0005173
 9,-0.00023706,0.00036012,0.00053853,0.00014373,0.00000761,-0.00002999,
 -0.01136998,0.32836507,-0.00019246,-0.00007791,-0.00010366,0.00034746,
 -0.00003796,-0.00004587,0.00046020,0.00104146,0.00013038,-0.00473174,0
 .00185427,0.00030567,0.00141714,0.01287197,0.01000622,-0.00022684,-0.0
 0004641,0.00060119,-0.00576666,-0.07979087,-0.08279443,0.00136853,-0.0
 2452134,0.00190809,-0.00362284,-0.00168338,-0.00242148,0.00013303,-0.0
 0003563,-0.00010522,0.00012452,0.00006055,-0.00007714,-0.00009817,0.00
 000223,0.00002091,-0.00035246,-0.00004443,0.00015867,0.00007200,0.0001
 7711,0.00022893,0.00147929,-0.00049909,-0.00037249,0.00001541,-0.00003
 621,-0.00002172,0.00803308,0.09111025,0.07300084,0.00054400,0.00060161
 ,0.00055661,-0.00020453,-0.00018956,-0.00072547,0.00059414,-0.00007051
 ,0.00042098,-0.00079672,0.00040867,-0.00125321,0.00277021,-0.00014373,
 -0.00465582,-0.00015235,0.00006023,-0.00060317,-0.00092972,0.00613442,
 -0.00315518,-0.10555547,0.08119148,-0.11208118,0.00285274,-0.00296359,
 0.00399304,0.00016107,-0.00061296,-0.00000596,-0.00011218,-0.00014371,
 0.00001542,0.00000298,0.00014427,0.00023597,-0.00004862,0.00012414,-0.
 00007935,0.00039175,0.00011647,-0.00069868,0.00026741,0.00113734,-0.00
 032031,0.00005170,0.00002672,-0.00003445,-0.00247636,-0.00077638,0.001
 57895,0.10297077,0.00015744,0.00028162,0.00013507,-0.00027243,-0.00020
 440,0.00008153,-0.00042523,-0.00004210,0.00017161,-0.00133664,-0.00550
 003,0.00049438,-0.00067418,-0.00103858,-0.00324275,0.00026774,-0.00008
 266,-0.00033741,-0.00724652,0.01018359,-0.00840647,0.07992751,-0.14217
 965,0.10667216,0.01429336,-0.00462298,0.01722089,0.00004176,0.00015113
 ,0.00002011,-0.00002502,0.00000762,0.00003621,0.00014184,-0.00001901,-
 0.00014382,-0.00003411,0.00004466,0.00004749,0.00158309,-0.00001906,0.
 00087819,-0.00012991,0.00091091,-0.00028555,-0.00002672,0.00003983,0.0
 0001028,0.00007416,0.00021152,0.00113186,-0.08577955,0.14139764,-0.000
 35269,-0.00022934,-0.00035303,0.00007824,-0.00009421,0.00075972,-0.000
 13586,-0.00002706,-0.00027786,0.00061714,-0.00205163,0.00031162,-0.002
 97733,-0.00203789,-0.00243812,0.00015271,-0.00020156,0.00037844,-0.010
 73079,0.01782632,-0.00792468,-0.10704777,0.10227764,-0.17955020,0.0022
 8636,-0.00312458,0.00244546,-0.00003552,0.00036144,0.00002823,0.000023
 50,0.00002998,-0.00002172,-0.00012862,-0.00000567,0.00002014,-0.000018
 63,-0.00007483,0.00010757,-0.00007392,0.00000727,0.00075855,-0.0008538
 2,0.00064321,-0.00017463,-0.00003445,-0.00001028,0.00002891,0.00192414
 ,-0.00010339,-0.00027184,0.11731698,-0.11403459,0.18570244,-0.00042839
 ,0.00014466,-0.00013454,-0.00036155,0.00125587,-0.00119711,-0.00319732
 ,-0.00135156,-0.00076494,-0.01952741,-0.00752416,0.00880352,-0.0000221
 0,0.00155783,-0.00001770,-0.00066163,0.00016514,-0.00026620,0.00100275
 ,0.00043145,0.00078754,0.00333326,-0.00203978,-0.00110795,-0.21775989,
 -0.06828741,0.08548282,-0.00069482,-0.00099860,0.00051503,-0.00001437,
 -0.00009166,0.00001291,0.00019382,-0.00000390,0.00002162,0.00032330,0.
 00008427,-0.00014395,0.00095427,0.00065945,0.00021235,-0.00003476,-0.0
 0009039,-0.00015419,0.00011919,-0.00004196,-0.00011538,-0.00020175,-0.
 00015009,0.00003845,-0.00045209,-0.00053238,-0.00001343,0.24070164,-0.
 00013367,0.00031816,-0.00018623,-0.00069469,-0.00042630,0.00041672,0.0
 0117682,0.00016567,0.00132503,0.00756312,0.00209103,-0.00286461,-0.000
 74350,0.00045039,0.00029967,0.00014287,-0.00040241,-0.00062044,0.00199
 662,-0.00237403,0.00348081,-0.02665514,-0.01787391,0.00775365,-0.07409
 555,-0.06740604,0.03254593,0.00048668,0.00007947,-0.00014348,0.0000185
 2,0.00000703,0.00003130,0.00014378,-0.00007285,0.00007689,-0.00016153,
 0.00015477,0.00021682,-0.00013121,0.00034674,-0.00032177,0.00000619,0.
 00004516,0.00001895,-0.00016257,0.00007409,0.00009563,0.00124246,0.000
 22587,-0.00078097,0.00065441,-0.00026535,0.00001543,0.07777623,0.07958
 539,-0.00065712,-0.00088285,-0.00179913,0.00120005,0.00208729,-0.00028
 247,-0.00216345,-0.00076519,0.00008352,-0.01539648,-0.00676077,0.00515
 430,0.00190241,-0.00093921,0.00166884,-0.00142914,-0.00035119,0.001710
 37,-0.00275286,0.00052073,-0.00232040,0.00138087,0.00410148,0.00049281
 ,0.08750669,0.02978788,-0.08692873,0.00008370,-0.00030289,-0.00006744,
 0.00006195,-0.00000802,-0.00007799,-0.00045308,0.00010904,0.00042913,0
 .00002338,0.00018702,0.00007886,0.00062802,0.00009889,0.00096227,-0.00
 005268,0.00004380,-0.00013843,-0.00006267,-0.00000178,0.00006332,0.000
 29913,0.00007402,-0.00021896,-0.00015433,0.00041454,0.00019954,-0.0940
 0062,-0.03655013,0.09285667,0.00034389,0.00003836,0.00037806,-0.000536
 41,-0.00070459,0.00007464,0.00052814,-0.00056854,-0.00181258,0.0013883
 6,-0.01232426,-0.01839087,-0.00374168,0.00205878,-0.00389532,0.0004934
 4,0.00022604,-0.00020221,0.00184781,-0.00009995,0.00051154,-0.00203208
 ,-0.00236433,0.00079852,-0.05031848,0.01734936,0.03042855,0.00001843,0
 .00036495,0.00005629,0.00000777,0.00004610,0.00002976,-0.00027764,-0.0
 0039733,0.00005653,-0.00021820,0.00033197,-0.00002984,-0.00010847,0.00
 028950,-0.00008330,0.00016761,-0.00111864,-0.00068417,0.00006733,0.000
 00872,-0.00000853,0.00018923,-0.00015105,-0.00011958,-0.00006529,-0.00
 003747,0.00012770,-0.00324415,0.01140633,0.02402551,0.05550988,-0.0005
 0407,-0.00011319,-0.00059054,0.00034233,-0.00000701,-0.00039479,-0.000
 19230,0.00046952,0.00031003,-0.00146335,0.00323892,0.00735396,0.002401
 49,-0.00096243,0.00061052,-0.00022596,-0.00036036,0.00036733,0.0006838
 4,-0.00589347,-0.00066269,0.00188366,-0.00952340,-0.02905926,0.0146008
 4,-0.09449810,-0.09896349,-0.00000040,-0.00008368,0.00012263,0.0000286
 2,-0.00001158,-0.00001149,-0.00033795,-0.00016057,0.00044672,-0.000094
 67,0.00005605,0.00007967,-0.00005419,-0.00007058,0.00002913,-0.0001102
 4,0.00034523,0.00002346,-0.00004870,0.00001661,0.00005490,-0.00173809,
 -0.00053712,-0.00067570,-0.00013099,0.00065462,0.00098425,-0.00084008,
 0.00496710,0.00934004,-0.01425641,0.10233947,0.00001890,-0.00022600,-0
 .00048531,0.00054105,0.00083995,0.00097752,0.00156553,-0.00033810,-0.0
 0025942,0.00358122,-0.00795538,-0.01335547,-0.00196352,0.00023581,-0.0
 0178529,0.00038288,-0.00035961,0.00052086,0.00015106,0.00095915,-0.000
 99839,-0.00057434,0.00197189,0.00491503,0.02691848,-0.10051528,-0.2552
 4320,0.00028489,0.00064307,-0.00004881,0.00006313,-0.00000581,-0.00005
 768,-0.00014458,0.00009384,0.00043891,-0.00054537,0.00046871,0.0005218
 7,-0.00041467,0.00021700,-0.00049961,-0.00040127,-0.00094310,-0.000123
 00,-0.00020954,0.00006770,0.00013826,0.00005447,0.00005368,0.00020756,
 -0.00007863,-0.00079782,0.00006987,0.00221395,-0.00502623,-0.01169241,
 -0.03136830,0.11063309,0.27670775,0.00100290,-0.00043126,0.00078776,-0
 .00002207,-0.00155791,-0.00001758,-0.01952742,0.00752429,0.00880261,-0
 .00319740,0.00135149,-0.00076501,-0.00036162,-0.00125595,-0.00119703,0
 .00333213,0.00204030,-0.00110777,-0.00042838,-0.00014473,-0.00013444,-
 0.00066155,-0.00016521,-0.00026625,-0.00069484,0.00099865,0.00051500,-
 0.21776518,0.06829009,0.08547651,-0.00020172,0.00015008,0.00003840,-0.
 00003476,0.00009036,-0.00015421,0.00095425,-0.00065941,0.00021239,0.00
 032332,-0.00008429,-0.00014396,0.00019384,0.00000391,0.00002162,-0.000
 45206,0.00053237,-0.00001349,-0.00001437,0.00009166,0.00001291,0.00011
 921,0.00004196,-0.00011540,-0.00000008,0.00013264,-0.00001074,-0.00002
 791,-0.00000974,-0.00016145,0.24070769,-0.00199657,-0.00237433,-0.0034
 8084,0.00074358,0.00045052,-0.00029949,-0.00756526,0.00209188,0.002865
 11,-0.00117710,0.00016554,-0.00132515,0.00069485,-0.00042667,-0.000416
 69,0.02665575,-0.01787390,-0.00775180,0.00013368,0.00031830,0.00018602
 ,-0.00014293,-0.00040239,0.00062059,-0.00048671,0.00007954,0.00014350,
 0.07409830,-0.06740682,-0.03254389,-0.00124239,0.00022590,0.00078081,-
 0.00000618,0.00004514,-0.00001897,0.00013131,0.00034670,0.00032183,0.0
 0016153,0.00015474,-0.00021685,-0.00014383,-0.00007287,-0.00007684,-0.
 00065441,-0.00026538,-0.00001540,-0.00001852,0.00000703,-0.00003131,0.
 00016254,0.00007409,-0.00009563,-0.00013265,0.00024538,-0.00020499,-0.
 00003118,0.00006463,-0.00001207,-0.07777934,0.07958662,-0.00275264,-0.
 00052080,-0.00232005,0.00190204,0.00093948,0.00166883,-0.01539612,0.00
 676059,0.00515336,-0.00216339,0.00076519,0.00008351,0.00119998,-0.0020
 8730,-0.00028225,0.00137878,-0.00410000,0.00049374,-0.00065711,0.00088
 264,-0.00179913,-0.00142898,0.00035126,0.00171019,0.00008369,0.0003029
 0,-0.00006746,0.08749986,-0.02978579,-0.08692187,0.00029924,-0.0000740
 5,-0.00021900,-0.00005263,-0.00004385,-0.00013844,0.00062804,-0.000098
 84,0.00096221,0.00002337,-0.00018704,0.00007891,-0.00045310,-0.0001090
 0,0.00042913,-0.00015426,-0.00041450,0.00019957,0.00006194,0.00000801,
 -0.00007798,-0.00006268,0.00000178,0.00006334,-0.00001074,0.00020495,-
 0.00014732,0.00002148,-0.00000230,-0.00002635,-0.09399357,0.03654737,0
 .09284876,0.00184789,0.00010027,0.00051149,-0.00374149,-0.00205922,-0.
 00389505,0.00138816,0.01232260,-0.01839156,0.00052805,0.00056835,-0.00
 181265,-0.00053643,0.00070461,0.00007455,-0.00203213,0.00236462,0.0007
 9729,0.00034386,-0.00003833,0.00037802,0.00049341,-0.00022603,-0.00020
 216,0.00001843,-0.00036494,0.00005633,-0.05031827,-0.01734598,0.030428
 65,0.00018917,0.00015105,-0.00011961,0.00016762,0.00111855,-0.00068428
 ,-0.00010841,-0.00028951,-0.00008320,-0.00021826,-0.00033197,-0.000029
 83,-0.00027764,0.00039733,0.00005647,-0.00006531,0.00003746,0.00012774
 ,0.00000778,-0.00004610,0.00002977,0.00006733,-0.00000872,-0.00000853,
 -0.00002791,0.00003118,0.00002148,0.00000839,0.00006636,0.00008612,-0.
 00324396,-0.01140448,0.02402678,0.05550971,-0.00068352,-0.00589357,0.0
 0066323,-0.00240175,-0.00096264,-0.00061076,0.00146372,0.00323943,-0.0
 0735608,0.00019241,0.00046950,-0.00031013,-0.00034239,-0.00000715,0.00
 039494,-0.00188363,-0.00952080,0.02906044,0.00050414,-0.00011309,0.000
 59046,0.00022599,-0.00036038,-0.00036726,0.00000045,-0.00008375,-0.000
 12263,-0.01459769,-0.09448132,0.09894949,0.00173803,-0.00053698,0.0006
 7588,0.00011019,0.00034535,-0.00002353,0.00005418,-0.00007059,-0.00002
 915,0.00009459,0.00005601,-0.00007963,0.00033795,-0.00016064,-0.000446
 62,0.00013097,0.00065460,-0.00098429,-0.00002861,-0.00001158,0.0000114
 9,0.00004867,0.00001660,-0.00005489,0.00000972,0.00006463,0.00000229,-
 0.00006636,0.00006935,-0.00000451,0.00084005,0.00496633,-0.00934069,0.
 01425289,0.10232068,0.00015118,-0.00095869,-0.00099837,-0.00196348,-0.
 00023594,-0.00178527,0.00358116,0.00795421,-0.01335571,0.00156549,0.00
 033810,-0.00025943,0.00054113,-0.00083989,0.00097758,-0.00057407,-0.00
 197068,0.00491251,0.00001887,0.00022597,-0.00048537,0.00038285,0.00035
 967,0.00052083,0.00028487,-0.00064306,-0.00004874,0.02691814,0.1005012
 9,-0.25525997,0.00005428,-0.00005361,0.00020753,-0.00040127,0.00094307
 ,-0.00012311,-0.00041462,-0.00021708,-0.00049953,-0.00054536,-0.000468
 69,0.00052193,-0.00014467,-0.00009374,0.00043892,-0.00007867,0.0007977
 6,0.00006989,0.00006313,0.00000581,-0.00005768,-0.00020953,-0.00006770
 ,0.00013828,-0.00016145,0.00001206,-0.00002635,0.00008613,0.00000451,0
 .00007730,0.00221371,0.00502469,-0.01169171,-0.03136780,-0.11061807,0.
 27672646\\-0.00060459,-0.00019336,-0.00037211,-0.00174959,0.00048947,0
 .00032221,-0.00150793,-0.00013649,0.00080127,0.00150788,-0.00013600,-0
 .00080171,0.00174997,0.00049031,-0.00032214,-0.00209094,-0.00006897,0.
 00056811,0.00060471,-0.00019366,0.00037207,0.00208987,-0.00006835,-0.0
 0056818,0.00098556,-0.00008186,-0.00021256,-0.00098492,-0.00008194,0.0
 0021281,0.00004864,-0.00004279,-0.00006831,-0.00002158,-0.00002601,-0.
 00001133,-0.00003444,0.00004742,0.00000303,0.00003447,0.00004691,-0.00
 000288,0.00002157,-0.00002612,0.00001120,-0.00018726,0.00000474,0.0000
 5130,-0.00004859,-0.00004260,0.00006844,0.00018740,0.00000448,-0.00005
 097,0.00009102,0.00004797,0.00002784,0.00002582,-0.00004070,-0.0000034
 0,-0.00009124,0.00004810,-0.00002775,-0.00002581,-0.00004056,0.0000030
 6\\\@


 THE TEST OF A FIRST RATE INTELLIGENCE IS THE ABILITY TO HOLD TWO OPPOSED
 IDEAS IN THE MIND AT THE SAME TIME, AND STILL RETAIN THE ABILITY TO FUNCTION.
 ONE SHOULD, FOR EXAMPLE, BE ABLE TO SEE THAT THINGS ARE HOPELESS AND YET BE
 DETERMINED TO MAKE THEM OTHERWISE.

                                                       -- F. SCOTT FITZGERALD
 Job cpu time:       0 days  1 hours  4 minutes 43.5 seconds.
 Elapsed time:       0 days  0 hours  0 minutes 41.4 seconds.
 File lengths (MBytes):  RWF=    182 Int=      0 D2E=      0 Chk=     11 Scr=      1
 Normal termination of Gaussian 16 at Mon Jul 28 00:14:34 2025.
