 Entering Gaussian System, Link 0=g16
 Initial command:
 /home/hongchang/data/software/Gaussian/g16/l1.exe "/home/hongchang/data/software/Gaussian/g16/scratch/Gau-1361875.inp" -scrdir="/home/hongchang/data/software/Gaussian/g16/scratch/"
 Entering Link 1 = /home/hongchang/data/software/Gaussian/g16/l1.exe PID=   1361876.
  
 Copyright (c) 1988,1990,1992,1993,1995,1998,2003,2009,2016,
            Gaussian, Inc.  All Rights Reserved.
  
 This is part of the Gaussian(R) 16 program.  It is based on
 the Gaussian(R) 09 system (copyright 2009, Gaussian, Inc.),
 the Gaussian(R) 03 system (copyright 2003, Gaussian, Inc.),
 the Gaussian(R) 98 system (copyright 1998, Gaussian, Inc.),
 the Gaussian(R) 94 system (copyright 1995, Gaussian, Inc.),
 the Gaussian 92(TM) system (copyright 1992, Gaussian, Inc.),
 the Gaussian 90(TM) system (copyright 1990, Gaussian, Inc.),
 the Gaussian 88(TM) system (copyright 1988, Gaussian, Inc.),
 the Gaussian 86(TM) system (copyright 1986, Carnegie Mellon
 University), and the Gaussian 82(TM) system (copyright 1983,
 Carnegie Mellon University). Gaussian is a federally registered
 trademark of Gaussian, Inc.
  
 This software contains proprietary and confidential information,
 including trade secrets, belonging to Gaussian, Inc.
  
 This software is provided under written license and may be
 used, copied, transmitted, or stored only in accord with that
 written license.
  
 The following legend is applicable only to US Government
 contracts under FAR:
  
                    RESTRICTED RIGHTS LEGEND
  
 Use, reproduction and disclosure by the US Government is
 subject to restrictions as set forth in subparagraphs (a)
 and (c) of the Commercial Computer Software - Restricted
 Rights clause in FAR 52.227-19.
  
 Gaussian, Inc.
 340 Quinnipiac St., Bldg. 40, Wallingford CT 06492
  
  
 ---------------------------------------------------------------
 Warning -- This program may not be used in any manner that
 competes with the business of Gaussian, Inc. or will provide
 assistance to any competitor of Gaussian, Inc.  The licensee
 of this program is prohibited from giving any competitor of
 Gaussian, Inc. access to this program.  By using this program,
 the user acknowledges that Gaussian, Inc. is engaged in the
 business of creating and licensing software in the field of
 computational chemistry and represents and warrants to the
 licensee that it is not a competitor of Gaussian, Inc. and that
 it will not use this program in any manner prohibited above.
 ---------------------------------------------------------------
  

 Cite this work as:
 Gaussian 16, Revision A.03,
 M. J. Frisch, G. W. Trucks, H. B. Schlegel, G. E. Scuseria, 
 M. A. Robb, J. R. Cheeseman, G. Scalmani, V. Barone, 
 G. A. Petersson, H. Nakatsuji, X. Li, M. Caricato, A. V. Marenich, 
 J. Bloino, B. G. Janesko, R. Gomperts, B. Mennucci, H. P. Hratchian, 
 J. V. Ortiz, A. F. Izmaylov, J. L. Sonnenberg, D. Williams-Young, 
 F. Ding, F. Lipparini, F. Egidi, J. Goings, B. Peng, A. Petrone, 
 T. Henderson, D. Ranasinghe, V. G. Zakrzewski, J. Gao, N. Rega, 
 G. Zheng, W. Liang, M. Hada, M. Ehara, K. Toyota, R. Fukuda, 
 J. Hasegawa, M. Ishida, T. Nakajima, Y. Honda, O. Kitao, H. Nakai, 
 T. Vreven, K. Throssell, J. A. Montgomery, Jr., J. E. Peralta, 
 F. Ogliaro, M. J. Bearpark, J. J. Heyd, E. N. Brothers, K. N. Kudin, 
 V. N. Staroverov, T. A. Keith, R. Kobayashi, J. Normand, 
 K. Raghavachari, A. P. Rendell, J. C. Burant, S. S. Iyengar, 
 J. Tomasi, M. Cossi, J. M. Millam, M. Klene, C. Adamo, R. Cammi, 
 J. W. Ochterski, R. L. Martin, K. Morokuma, O. Farkas, 
 J. B. Foresman, and D. J. Fox, Gaussian, Inc., Wallingford CT, 2016.
 
 ******************************************
 Gaussian 16:  ES64L-G16RevA.03 25-Dec-2016
                28-Jul-2025 
 ******************************************
 %nprocshared=96
 Will use up to   96 processors via shared memory.
 %mem=600GB
 %chk=01_02_path1_6.chk
 -----------------------------------------------------------
 # freq b3lyp/6-311g(d,p) em=gd3bj scrf(solvent=Cis-Decalin)
 -----------------------------------------------------------
 1/10=4,30=1,38=1/1,3;
 2/12=2,17=6,18=5,40=1/2;
 3/5=4,6=6,7=101,11=2,25=1,30=1,70=2201,71=2,72=99,74=-5,124=41,140=1/1,2,3;
 4//1;
 5/5=2,38=5,53=99,98=1/2;
 8/6=4,10=90,11=11/1;
 11/6=1,8=1,9=11,15=111,16=1/1,2,10;
 10/6=1/2;
 6/7=2,8=2,9=2,10=2,28=1/1;
 7/8=1,10=1,25=1/1,2,3,16;
 1/10=4,30=1/3;
 99//99;
 -------------
 01_02_path1_6
 -------------
 Symbolic Z-matrix:
 Charge =  0 Multiplicity = 1
 C                    -1.36345  -1.16665   0.65464 
 C                    -0.73978  -0.09206   1.36919 
 C                    -0.86371   1.07035   0.61965 
 C                     0.86368   1.07029  -0.61975 
 C                     0.73977  -0.0922   -1.36917 
 C                    -1.93181  -0.69417  -0.48745 
 C                     1.36347  -1.1667   -0.65452 
 C                     1.93185  -0.69409   0.48751 
 C                     1.88762   0.80959   0.4669 
 C                    -1.88763   0.80951  -0.46699 
 H                    -1.3241   -2.20532   0.9564 
 H                    -0.24583  -0.1855    2.32476 
 H                    -0.69328   2.06225   1.0176 
 H                     0.69324   2.06216  -1.0178 
 H                     0.24582  -0.18574  -2.32472 
 H                    -2.45503  -1.27639  -1.23305 
 H                     1.32414  -2.2054   -0.95618 
 H                     2.45509  -1.27622   1.23316 
 H                     2.85897   1.19039   0.11392 
 H                     1.68853   1.28474   1.42806 
 H                    -2.85899   1.19032  -0.11405 
 H                    -1.68854   1.28458  -1.42818 
 

 GradGradGradGradGradGradGradGradGradGradGradGradGradGradGradGradGradGrad
 Berny optimization.
 Initialization pass.
 Trust Radius=3.00D-01 FncErr=1.00D-07 GrdErr=1.00D-07 EigMax=2.50D+02 EigMin=1.00D-04
 Number of steps in this run=      2 maximum allowed number of steps=      2.
 GradGradGradGradGradGradGradGradGradGradGradGradGradGradGradGradGradGrad

                          Input orientation:                          
 ---------------------------------------------------------------------
 Center     Atomic      Atomic             Coordinates (Angstroms)
 Number     Number       Type             X           Y           Z
 ---------------------------------------------------------------------
      1          6           0       -1.363446   -1.166654    0.654639
      2          6           0       -0.739782   -0.092060    1.369194
      3          6           0       -0.863705    1.070349    0.619654
      4          6           0        0.863678    1.070293   -0.619754
      5          6           0        0.739765   -0.092195   -1.369174
      6          6           0       -1.931814   -0.694166   -0.487453
      7          6           0        1.363467   -1.166704   -0.654521
      8          6           0        1.931848   -0.694089    0.487510
      9          6           0        1.887618    0.809587    0.466904
     10          6           0       -1.887628    0.809513   -0.466989
     11          1           0       -1.324100   -2.205315    0.956404
     12          1           0       -0.245834   -0.185501    2.324756
     13          1           0       -0.693282    2.062254    1.017603
     14          1           0        0.693235    2.062155   -1.017804
     15          1           0        0.245815   -0.185740   -2.324725
     16          1           0       -2.455028   -1.276387   -1.233052
     17          1           0        1.324140   -2.205396   -0.956183
     18          1           0        2.455086   -1.276224    1.233158
     19          1           0        2.858965    1.190386    0.113917
     20          1           0        1.688528    1.284740    1.428056
     21          1           0       -2.858989    1.190316   -0.114046
     22          1           0       -1.688544    1.284583   -1.428184
 ---------------------------------------------------------------------
                    Distance matrix (angstroms):
                    1          2          3          4          5
     1  C    0.000000
     2  C    1.433282   0.000000
     3  C    2.292411   1.388655   0.000000
     4  C    3.404128   2.806789   2.126025   0.000000
     5  C    3.110270   3.112510   2.806788   1.388655   0.000000
     6  C    1.360390   2.287053   2.340952   3.308413   2.877001
     7  C    3.024889   3.110296   3.404148   2.292412   1.433284
     8  C    3.333199   2.877049   3.308447   2.340954   2.287054
     9  C    3.809224   2.920672   2.767871   1.515667   2.345626
    10  C    2.331963   2.345624   1.515667   2.767856   2.920652
    11  H    1.082325   2.231069   3.324957   4.242671   3.759405
    12  H    2.236293   1.079729   2.205968   3.387945   3.824295
    13  H    3.317636   2.183311   1.082258   2.467600   3.520224
    14  H    4.177584   3.520219   2.467592   1.082259   2.183312
    15  H    3.525411   3.824293   3.387944   2.205969   1.079729
    16  H    2.183339   3.334124   3.387034   4.110578   3.409918
    17  H    3.301038   3.759434   4.242692   3.324958   2.231070
    18  H    3.863661   3.409975   4.110616   3.387035   3.334124
    19  H    4.865878   4.021364   3.758783   2.129288   2.887141
    20  H    3.990245   2.792084   2.685772   2.218083   3.258926
    21  H    2.895312   2.887131   2.129288   3.758776   4.021344
    22  H    3.233018   3.258929   2.218084   2.685762   2.792075
                    6          7          8          9         10
     6  C    0.000000
     7  C    3.333179   0.000000
     8  C    3.984776   1.360388   0.000000
     9  C    4.214277   2.331964   1.504467   0.000000
    10  C    1.504467   3.809228   4.214295   3.889041   0.000000
    11  H    2.176605   3.301031   3.620064   4.432198   3.381242
    12  H    3.318100   3.525436   2.894207   2.998905   3.388123
    13  H    3.375945   4.177605   3.843141   2.921214   2.280315
    14  H    3.843106   3.317637   3.375946   2.280315   2.921192
    15  H    2.894155   2.236296   3.318101   3.388124   2.998882
    16  H    1.081042   3.863629   4.748061   5.108788   2.293420
    17  H    3.620050   1.082325   2.176605   3.381243   4.432205
    18  H    4.748072   2.183337   1.081041   2.293419   5.108812
    19  H    5.183121   2.895321   2.133158   1.101418   4.797151
    20  H    4.548859   3.233012   2.204449   1.090514   4.075037
    21  H    2.133157   4.865880   5.183143   4.797159   1.101418
    22  H    2.204451   3.990255   4.548875   4.075036   1.090514
                   11         12         13         14         15
    11  H    0.000000
    12  H    2.667338   0.000000
    13  H    4.314374   2.638420   0.000000
    14  H    5.116487   4.136002   2.462785   0.000000
    15  H    4.160424   4.675403   4.136005   2.638420   0.000000
    16  H    2.633557   4.327652   4.394965   4.593882   3.110597
    17  H    3.266675   4.160451   5.116508   4.314375   2.667340
    18  H    3.901545   3.110664   4.593922   4.394966   4.327651
    19  H    5.453311   4.052240   3.767660   2.594448   3.830046
    20  H    4.634530   2.589872   2.538901   2.752674   4.281016
    21  H    3.877120   3.830040   2.594454   3.767649   4.052214
    22  H    4.242460   4.281018   2.752670   2.538878   2.589861
                   16         17         18         19         20
    16  H    0.000000
    17  H    3.901516   0.000000
    18  H    5.494671   2.633555   0.000000
    19  H    6.011474   3.877130   2.738610   0.000000
    20  H    5.550669   4.242455   2.680323   1.762324   0.000000
    21  H    2.738610   5.453313   6.011503   5.722496   4.802802
    22  H    2.680325   4.634545   5.550689   4.802789   4.422977
                   21         22
    21  H    0.000000
    22  H    1.762324   0.000000
 Stoichiometry    C10H12
 Framework group  C1[X(C10H12)]
 Deg. of freedom    60
 Full point group                 C1      NOp   1
 Largest Abelian subgroup         C1      NOp   1
 Largest concise Abelian subgroup C1      NOp   1
                         Standard orientation:                         
 ---------------------------------------------------------------------
 Center     Atomic      Atomic             Coordinates (Angstroms)
 Number     Number       Type             X           Y           Z
 ---------------------------------------------------------------------
      1          6           0        1.369447    1.178658    0.641962
      2          6           0        0.752417    0.104088    1.362289
      3          6           0        0.869397   -1.058345    0.611671
      4          6           0       -0.869377   -1.058322   -0.611704
      5          6           0       -0.752399    0.104142   -1.362275
      6          6           0        1.927224    0.706132   -0.505324
      7          6           0       -1.369460    1.178675   -0.641916
      8          6           0       -1.927254    0.706098    0.505338
      9          6           0       -1.883220   -0.797579    0.484371
     10          6           0        1.883225   -0.797546   -0.484405
     11          1           0        1.332897    2.217329    0.944045
     12          1           0        0.267330    0.197561    2.322377
     13          1           0        0.702660   -2.050237    1.011211
     14          1           0       -0.702626   -2.050197   -1.011283
     15          1           0       -0.267309    0.197656   -2.322357
     16          1           0        2.443520    1.288328   -1.255750
     17          1           0       -1.332922    2.217358   -0.943962
     18          1           0       -2.443570    1.288258    1.255777
     19          1           0       -2.857792   -1.178386    0.140397
     20          1           0       -1.675249   -1.272702    1.443655
     21          1           0        2.857808   -1.178341   -0.140451
     22          1           0        1.675257   -1.272645   -1.443703
 ---------------------------------------------------------------------
 Rotational constants (GHZ):           2.3764289           1.3052593           1.2458194
 Standard basis: 6-311G(d,p) (5D, 7F)
 There are   262 symmetry adapted cartesian basis functions of A   symmetry.
 There are   252 symmetry adapted basis functions of A   symmetry.
   252 basis functions,   416 primitive gaussians,   262 cartesian basis functions
    36 alpha electrons       36 beta electrons
       nuclear repulsion energy       519.3264236886 Hartrees.
 NAtoms=   22 NActive=   22 NUniq=   22 SFac= 1.00D+00 NAtFMM=   60 NAOKFM=F Big=F
 Integral buffers will be    131072 words long.
 Raffenetti 2 integral format.
 Two-electron integral symmetry is turned on.
 Nuclear repulsion after empirical dispersion term =      519.2802154615 Hartrees.
 Force inversion solution in PCM.
 ------------------------------------------------------------------------------
 Polarizable Continuum Model (PCM)
 =================================
 Model                : PCM.
 Atomic radii         : UFF (Universal Force Field).
 Polarization charges : Total charges.
 Charge compensation  : None.
 Solution method      : Matrix inversion.
 Cavity type          : Scaled VdW (van der Waals Surface) (Alpha=1.100).
 Cavity algorithm     : GePol (No added spheres)
                        Default sphere list used, NSphG=   22.
                        Lebedev-Laikov grids with approx.  5.0 points / Ang**2.
                        Smoothing algorithm: York/Karplus (Gamma=1.0000).
                        Polarization charges: spherical gaussians, with
                                              point-specific exponents (IZeta= 3).
                        Self-potential: point-specific (ISelfS= 7).
                        Self-field    : sphere-specific E.n sum rule (ISelfD= 2).
 1st derivatives      : Analytical E(r).r(x)/FMM algorithm (CHGder, D1EAlg=3).
                        Cavity 1st derivative terms included.
 2nd derivatives      : Analytical E(r).r(xy)/FMM algorithm (CHGder, D2EAlg=3).
                        Cavity 2nd derivative terms included.
 Solvent              : Cis-Decalin, Eps=   2.213900 Eps(inf)=   2.193361
 ------------------------------------------------------------------------------
 One-electron integrals computed using PRISM.
 NBasis=   252 RedAO= T EigKep=  5.40D-04  NBF=   252
 NBsUse=   252 1.00D-06 EigRej= -1.00D+00 NBFU=   252
 ExpMin= 1.03D-01 ExpMax= 4.56D+03 ExpMxC= 6.82D+02 IAcc=3 IRadAn=         5 AccDes= 0.00D+00
 Harris functional with IExCor=  402 and IRadAn=       5 diagonalized for initial guess.
 HarFok:  IExCor=  402 AccDes= 0.00D+00 IRadAn=         5 IDoV= 1 UseB2=F ITyADJ=14
 ICtDFT=  3500011 ScaDFX=  1.000000  1.000000  1.000000  1.000000
 FoFCou: FMM=F IPFlag=           0 FMFlag=      100000 FMFlg1=           0
         NFxFlg=           0 DoJE=T BraDBF=F KetDBF=T FulRan=T
         wScrn=  0.000000 ICntrl=       500 IOpCl=  0 I1Cent=   200000004 NGrid=           0
         NMat0=    1 NMatS0=      1 NMatT0=    0 NMatD0=    1 NMtDS0=    0 NMtDT0=    0
 Petite list used in FoFCou.
 Requested convergence on RMS density matrix=1.00D-08 within 128 cycles.
 Requested convergence on MAX density matrix=1.00D-06.
 Requested convergence on             energy=1.00D-06.
 No special actions if energy rises.
 Inv3:  Mode=1 IEnd=     7114800.
 Iteration    1 A*A^-1 deviation from unit magnitude is 5.77D-15 for    309.
 Iteration    1 A*A^-1 deviation from orthogonality  is 2.46D-15 for   1531    967.
 Iteration    1 A^-1*A deviation from unit magnitude is 5.55D-15 for    309.
 Iteration    1 A^-1*A deviation from orthogonality  is 2.46D-15 for   1500    663.
 Error on total polarization charges =  0.00631
 SCF Done:  E(RB3LYP) =  -388.322215098     A.U. after   12 cycles
            NFock= 12  Conv=0.41D-08     -V/T= 2.0046
 DoSCS=F DFT=T ScalE2(SS,OS)=  1.000000  1.000000
 Range of M.O.s used for correlation:     1   252
 NBasis=   252 NAE=    36 NBE=    36 NFC=     0 NFV=     0
 NROrb=    252 NOA=    36 NOB=    36 NVA=   216 NVB=   216
 Symmetrizing basis deriv contribution to polar:
 IMax=3 JMax=2 DiffMx= 0.00D+00
 G2DrvN: will do    23 centers at a time, making    1 passes.
 Calling FoFCou, ICntrl=  3107 FMM=F I1Cent=   0 AccDes= 0.00D+00.
 NEqPCM:  Using equilibrium solvation (IEInf=0, Eps=   2.2139, EpsInf=   2.1934)
 G2PCM: DoFxE=T DoFxN=T DoGrad=T DoDP/DQ/DG/TGxP=FFFF NFrqRd=   0 IEInf=0 SqF1=F DoCFld=F IF1Alg=4.
 End of G2Drv F.D. properties file   721 does not exist.
 End of G2Drv F.D. properties file   722 does not exist.
 End of G2Drv F.D. properties file   788 does not exist.
          IDoAtm=1111111111111111111111
 NEqPCM:  Using equilibrium solvation (IEInf=0, Eps=   2.2139, EpsInf=   2.1934)
          Differentiating once with respect to electric field.
                with respect to dipole field.
          Differentiating once with respect to nuclear coordinates.
 Keep R1 ints in memory in canonical form, NReq=612588626.
          There are    69 degrees of freedom in the 1st order CPHF.  IDoFFX=6 NUNeed=     3.
     66 vectors produced by pass  0 Test12= 1.13D-14 1.45D-09 XBig12= 2.12D+02 1.23D+01.
 AX will form    66 AO Fock derivatives at one time.
     66 vectors produced by pass  1 Test12= 1.13D-14 1.45D-09 XBig12= 2.77D+01 9.97D-01.
     66 vectors produced by pass  2 Test12= 1.13D-14 1.45D-09 XBig12= 2.85D-01 1.04D-01.
     66 vectors produced by pass  3 Test12= 1.13D-14 1.45D-09 XBig12= 8.22D-04 5.52D-03.
     66 vectors produced by pass  4 Test12= 1.13D-14 1.45D-09 XBig12= 1.55D-06 2.16D-04.
     47 vectors produced by pass  5 Test12= 1.13D-14 1.45D-09 XBig12= 1.67D-09 4.52D-06.
      7 vectors produced by pass  6 Test12= 1.13D-14 1.45D-09 XBig12= 1.62D-12 1.81D-07.
      3 vectors produced by pass  7 Test12= 1.13D-14 1.45D-09 XBig12= 1.58D-15 4.48D-09.
 InvSVY:  IOpt=1 It=  1 EMax= 1.24D-14
 Solved reduced A of dimension   387 with    69 vectors.
 Isotropic polarizability for W=    0.000000      128.74 Bohr**3.
 End of Minotr F.D. properties file   721 does not exist.
 End of Minotr F.D. properties file   722 does not exist.
 End of Minotr F.D. properties file   788 does not exist.

 **********************************************************************

            Population analysis using the SCF density.

 **********************************************************************

 Orbital symmetries:
       Occupied  (A) (A) (A) (A) (A) (A) (A) (A) (A) (A) (A) (A)
                 (A) (A) (A) (A) (A) (A) (A) (A) (A) (A) (A) (A)
                 (A) (A) (A) (A) (A) (A) (A) (A) (A) (A) (A) (A)
       Virtual   (A) (A) (A) (A) (A) (A) (A) (A) (A) (A) (A) (A)
                 (A) (A) (A) (A) (A) (A) (A) (A) (A) (A) (A) (A)
                 (A) (A) (A) (A) (A) (A) (A) (A) (A) (A) (A) (A)
                 (A) (A) (A) (A) (A) (A) (A) (A) (A) (A) (A) (A)
                 (A) (A) (A) (A) (A) (A) (A) (A) (A) (A) (A) (A)
                 (A) (A) (A) (A) (A) (A) (A) (A) (A) (A) (A) (A)
                 (A) (A) (A) (A) (A) (A) (A) (A) (A) (A) (A) (A)
                 (A) (A) (A) (A) (A) (A) (A) (A) (A) (A) (A) (A)
                 (A) (A) (A) (A) (A) (A) (A) (A) (A) (A) (A) (A)
                 (A) (A) (A) (A) (A) (A) (A) (A) (A) (A) (A) (A)
                 (A) (A) (A) (A) (A) (A) (A) (A) (A) (A) (A) (A)
                 (A) (A) (A) (A) (A) (A) (A) (A) (A) (A) (A) (A)
                 (A) (A) (A) (A) (A) (A) (A) (A) (A) (A) (A) (A)
                 (A) (A) (A) (A) (A) (A) (A) (A) (A) (A) (A) (A)
                 (A) (A) (A) (A) (A) (A) (A) (A) (A) (A) (A) (A)
                 (A) (A) (A) (A) (A) (A) (A) (A) (A) (A) (A) (A)
                 (A) (A) (A) (A) (A) (A) (A) (A) (A) (A) (A) (A)
                 (A) (A) (A) (A) (A) (A) (A) (A) (A) (A) (A) (A)
 The electronic state is 1-A.
 Alpha  occ. eigenvalues --  -10.17377 -10.17377 -10.16908 -10.16908 -10.16259
 Alpha  occ. eigenvalues --  -10.16258 -10.16039 -10.16038 -10.15809 -10.15808
 Alpha  occ. eigenvalues --   -0.86623  -0.84130  -0.71455  -0.70598  -0.69189
 Alpha  occ. eigenvalues --   -0.68668  -0.55505  -0.55054  -0.53196  -0.51689
 Alpha  occ. eigenvalues --   -0.51618  -0.50246  -0.44945  -0.42139  -0.39453
 Alpha  occ. eigenvalues --   -0.38329  -0.37447  -0.37083  -0.36220  -0.36175
 Alpha  occ. eigenvalues --   -0.35655  -0.34669  -0.31653  -0.26250  -0.24913
 Alpha  occ. eigenvalues --   -0.18872
 Alpha virt. eigenvalues --   -0.03101   0.01494   0.03617   0.04731   0.07349
 Alpha virt. eigenvalues --    0.07808   0.07861   0.09590   0.09762   0.10652
 Alpha virt. eigenvalues --    0.11083   0.11729   0.12726   0.15123   0.15188
 Alpha virt. eigenvalues --    0.17007   0.18715   0.19799   0.21846   0.23178
 Alpha virt. eigenvalues --    0.27053   0.27545   0.30701   0.31361   0.31865
 Alpha virt. eigenvalues --    0.32569   0.35509   0.38353   0.38420   0.39187
 Alpha virt. eigenvalues --    0.39889   0.40537   0.41003   0.42286   0.43379
 Alpha virt. eigenvalues --    0.44287   0.44750   0.46093   0.46464   0.49243
 Alpha virt. eigenvalues --    0.49930   0.52250   0.54992   0.55624   0.56430
 Alpha virt. eigenvalues --    0.56487   0.58856   0.59191   0.59946   0.59955
 Alpha virt. eigenvalues --    0.60221   0.61799   0.62011   0.63595   0.64082
 Alpha virt. eigenvalues --    0.64527   0.65529   0.66164   0.68809   0.70103
 Alpha virt. eigenvalues --    0.70423   0.71440   0.71663   0.73792   0.76518
 Alpha virt. eigenvalues --    0.79759   0.80403   0.83949   0.85674   0.87985
 Alpha virt. eigenvalues --    0.88140   0.91628   0.93237   0.98609   0.98836
 Alpha virt. eigenvalues --    1.04085   1.04387   1.05420   1.08065   1.13495
 Alpha virt. eigenvalues --    1.14897   1.15442   1.18295   1.21625   1.22114
 Alpha virt. eigenvalues --    1.24899   1.28882   1.33880   1.38839   1.39957
 Alpha virt. eigenvalues --    1.47027   1.47711   1.48509   1.49831   1.51601
 Alpha virt. eigenvalues --    1.52605   1.52918   1.54707   1.56285   1.56948
 Alpha virt. eigenvalues --    1.58502   1.59413   1.60595   1.60904   1.61230
 Alpha virt. eigenvalues --    1.63887   1.64120   1.66509   1.67580   1.70353
 Alpha virt. eigenvalues --    1.71164   1.73054   1.74489   1.77047   1.77961
 Alpha virt. eigenvalues --    1.78902   1.82062   1.82281   1.82545   1.84378
 Alpha virt. eigenvalues --    1.84870   1.86526   1.88268   1.88547   1.89150
 Alpha virt. eigenvalues --    1.91897   1.92238   1.94708   1.97694   1.97884
 Alpha virt. eigenvalues --    1.99237   1.99724   2.03423   2.04055   2.09418
 Alpha virt. eigenvalues --    2.12297   2.13098   2.15731   2.17783   2.18923
 Alpha virt. eigenvalues --    2.23321   2.23946   2.26841   2.31933   2.33016
 Alpha virt. eigenvalues --    2.34413   2.36753   2.36944   2.39374   2.41713
 Alpha virt. eigenvalues --    2.44431   2.45838   2.49870   2.51869   2.52874
 Alpha virt. eigenvalues --    2.53771   2.59355   2.59687   2.60477   2.61683
 Alpha virt. eigenvalues --    2.62726   2.67602   2.69408   2.70342   2.70874
 Alpha virt. eigenvalues --    2.71235   2.74355   2.74391   2.78223   2.78817
 Alpha virt. eigenvalues --    2.81415   2.83956   2.87478   2.92704   2.92990
 Alpha virt. eigenvalues --    2.93747   2.94411   2.97120   2.99868   3.05436
 Alpha virt. eigenvalues --    3.07469   3.09940   3.11446   3.18615   3.19528
 Alpha virt. eigenvalues --    3.25698   3.33727   3.34193   3.42784   3.42888
 Alpha virt. eigenvalues --    3.47167   3.49156   3.54972   3.59445   3.77431
 Alpha virt. eigenvalues --    3.78107   4.02644   4.03924   4.06027   4.08921
 Alpha virt. eigenvalues --    4.08983   4.11103   4.16345   4.18664   4.51922
 Alpha virt. eigenvalues --    4.54421  23.62805  23.74682  23.88180  23.89764
 Alpha virt. eigenvalues --   23.90061  23.96741  24.14446  24.15931  24.21200
 Alpha virt. eigenvalues --   24.21397
          Condensed to atoms (all electrons):
               1          2          3          4          5          6
     1  C    4.872757   0.451849  -0.077330  -0.008485   0.004209   0.572270
     2  C    0.451849   5.007923   0.524142  -0.048672  -0.044805  -0.087709
     3  C   -0.077330   0.524142   5.207621   0.071031  -0.048672  -0.095647
     4  C   -0.008485  -0.048672   0.071031   5.207621   0.524144  -0.013092
     5  C    0.004209  -0.044805  -0.048672   0.524144   5.007927   0.030091
     6  C    0.572270  -0.087709  -0.095647  -0.013092   0.030091   5.078287
     7  C   -0.013947   0.004210  -0.008484  -0.077330   0.451847  -0.009805
     8  C   -0.009804   0.030089  -0.013090  -0.095647  -0.087708  -0.002762
     9  C    0.000589  -0.012451  -0.030862   0.376636  -0.097197   0.000887
    10  C   -0.091572  -0.097197   0.376634  -0.030862  -0.012452   0.374256
    11  H    0.421003  -0.044650   0.006542  -0.000158  -0.000034  -0.045003
    12  H   -0.037916   0.420754  -0.043024  -0.001648   0.000316   0.006190
    13  H    0.007890  -0.036661   0.410694  -0.014742   0.002764   0.005858
    14  H   -0.000072   0.002764  -0.014742   0.410694  -0.036661  -0.000236
    15  H   -0.000319   0.000316  -0.001648  -0.043024   0.420753   0.002606
    16  H   -0.038011   0.008331   0.005228   0.000260  -0.001466   0.417259
    17  H    0.002008  -0.000034  -0.000158   0.006542  -0.044650   0.000775
    18  H    0.000089  -0.001466   0.000260   0.005228   0.008331   0.000027
    19  H   -0.000232   0.003067   0.005683  -0.029667  -0.001255  -0.000208
    20  H    0.000805  -0.003647  -0.003474  -0.041924   0.007669   0.000141
    21  H   -0.002207  -0.001255  -0.029667   0.005684   0.003067  -0.032999
    22  H    0.005404   0.007669  -0.041924  -0.003474  -0.003647  -0.035671
               7          8          9         10         11         12
     1  C   -0.013947  -0.009804   0.000589  -0.091572   0.421003  -0.037916
     2  C    0.004210   0.030089  -0.012451  -0.097197  -0.044650   0.420754
     3  C   -0.008484  -0.013090  -0.030862   0.376634   0.006542  -0.043024
     4  C   -0.077330  -0.095647   0.376636  -0.030862  -0.000158  -0.001648
     5  C    0.451847  -0.087708  -0.097197  -0.012452  -0.000034   0.000316
     6  C   -0.009805  -0.002762   0.000887   0.374256  -0.045003   0.006190
     7  C    4.872755   0.572273  -0.091572   0.000589   0.002008  -0.000319
     8  C    0.572273   5.078281   0.374256   0.000887   0.000775   0.002607
     9  C   -0.091572   0.374256   4.888942   0.003071  -0.000086  -0.000029
    10  C    0.000589   0.000887   0.003071   4.888945   0.008864   0.007405
    11  H    0.002008   0.000775  -0.000086   0.008864   0.573084  -0.002656
    12  H   -0.000319   0.002607  -0.000029   0.007405  -0.002656   0.555296
    13  H   -0.000072  -0.000236  -0.002588  -0.031861  -0.000288  -0.004265
    14  H    0.007890   0.005858  -0.031860  -0.002589   0.000027  -0.000046
    15  H   -0.037915   0.006190   0.007405  -0.000029  -0.000043   0.000001
    16  H    0.000089   0.000027  -0.000004  -0.038388  -0.005117  -0.000320
    17  H    0.421003  -0.045002   0.008864  -0.000086   0.000137  -0.000043
    18  H   -0.038011   0.417259  -0.038388  -0.000004   0.000019   0.000256
    19  H   -0.002207  -0.032999   0.384031  -0.000219   0.000002   0.000095
    20  H    0.005403  -0.035671   0.408258   0.000489  -0.000014   0.000010
    21  H   -0.000232  -0.000207  -0.000219   0.384031  -0.000486  -0.000410
    22  H    0.000805   0.000141   0.000489   0.408258  -0.000268  -0.000275
              13         14         15         16         17         18
     1  C    0.007890  -0.000072  -0.000319  -0.038011   0.002008   0.000089
     2  C   -0.036661   0.002764   0.000316   0.008331  -0.000034  -0.001466
     3  C    0.410694  -0.014742  -0.001648   0.005228  -0.000158   0.000260
     4  C   -0.014742   0.410694  -0.043024   0.000260   0.006542   0.005228
     5  C    0.002764  -0.036661   0.420753  -0.001466  -0.044650   0.008331
     6  C    0.005858  -0.000236   0.002606   0.417259   0.000775   0.000027
     7  C   -0.000072   0.007890  -0.037915   0.000089   0.421003  -0.038011
     8  C   -0.000236   0.005858   0.006190   0.000027  -0.045002   0.417259
     9  C   -0.002588  -0.031860   0.007405  -0.000004   0.008864  -0.038388
    10  C   -0.031861  -0.002589  -0.000029  -0.038388  -0.000086  -0.000004
    11  H   -0.000288   0.000027  -0.000043  -0.005117   0.000137   0.000019
    12  H   -0.004265  -0.000046   0.000001  -0.000320  -0.000043   0.000256
    13  H    0.546492  -0.002541  -0.000046  -0.000294   0.000027   0.000018
    14  H   -0.002541   0.546492  -0.004265   0.000018  -0.000288  -0.000294
    15  H   -0.000046  -0.004265   0.555295   0.000256  -0.002656  -0.000320
    16  H   -0.000294   0.000018   0.000256   0.559788   0.000019  -0.000000
    17  H    0.000027  -0.000288  -0.002656   0.000019   0.573085  -0.005117
    18  H    0.000018  -0.000294  -0.000320  -0.000000  -0.005117   0.559788
    19  H   -0.000282  -0.001208  -0.000410   0.000001  -0.000486   0.000321
    20  H    0.001860  -0.000850  -0.000275  -0.000005  -0.000268  -0.001844
    21  H   -0.001208  -0.000282   0.000095   0.000321   0.000002   0.000001
    22  H   -0.000850   0.001860   0.000009  -0.001844  -0.000014  -0.000005
              19         20         21         22
     1  C   -0.000232   0.000805  -0.002207   0.005404
     2  C    0.003067  -0.003647  -0.001255   0.007669
     3  C    0.005683  -0.003474  -0.029667  -0.041924
     4  C   -0.029667  -0.041924   0.005684  -0.003474
     5  C   -0.001255   0.007669   0.003067  -0.003647
     6  C   -0.000208   0.000141  -0.032999  -0.035671
     7  C   -0.002207   0.005403  -0.000232   0.000805
     8  C   -0.032999  -0.035671  -0.000207   0.000141
     9  C    0.384031   0.408258  -0.000219   0.000489
    10  C   -0.000219   0.000489   0.384031   0.408258
    11  H    0.000002  -0.000014  -0.000486  -0.000268
    12  H    0.000095   0.000010  -0.000410  -0.000275
    13  H   -0.000282   0.001860  -0.001208  -0.000850
    14  H   -0.001208  -0.000850  -0.000282   0.001860
    15  H   -0.000410  -0.000275   0.000095   0.000009
    16  H    0.000001  -0.000005   0.000321  -0.001844
    17  H   -0.000486  -0.000268   0.000002  -0.000014
    18  H    0.000321  -0.001844   0.000001  -0.000005
    19  H    0.573160  -0.031835   0.000004  -0.000056
    20  H   -0.031835   0.574136  -0.000056  -0.000016
    21  H    0.000004  -0.000056   0.573159  -0.031835
    22  H   -0.000056  -0.000016  -0.031835   0.574137
 Mulliken charges:
               1
     1  C   -0.058980
     2  C   -0.082567
     3  C   -0.199113
     4  C   -0.199114
     5  C   -0.082570
     6  C   -0.165517
     7  C   -0.058980
     8  C   -0.165515
     9  C   -0.148170
    10  C   -0.148170
    11  H    0.086341
    12  H    0.098021
    13  H    0.120331
    14  H    0.120331
    15  H    0.098023
    16  H    0.093849
    17  H    0.086341
    18  H    0.093849
    19  H    0.134698
    20  H    0.121107
    21  H    0.134698
    22  H    0.121107
 Sum of Mulliken charges =  -0.00000
 Mulliken charges with hydrogens summed into heavy atoms:
               1
     1  C    0.027361
     2  C    0.015454
     3  C   -0.078783
     4  C   -0.078782
     5  C    0.015453
     6  C   -0.071668
     7  C    0.027361
     8  C   -0.071666
     9  C    0.107635
    10  C    0.107635
 APT charges:
               1
     1  C   -0.012446
     2  C   -0.134185
     3  C    0.069811
     4  C    0.069803
     5  C   -0.134179
     6  C   -0.048274
     7  C   -0.012443
     8  C   -0.048281
     9  C    0.006226
    10  C    0.006225
    11  H    0.041434
    12  H    0.048617
    13  H    0.014316
    14  H    0.014316
    15  H    0.048616
    16  H    0.025709
    17  H    0.041433
    18  H    0.025711
    19  H   -0.019888
    20  H    0.008684
    21  H   -0.019889
    22  H    0.008683
 Sum of APT charges =   0.00000
 APT charges with hydrogens summed into heavy atoms:
               1
     1  C    0.028988
     2  C   -0.085568
     3  C    0.084127
     4  C    0.084119
     5  C   -0.085563
     6  C   -0.022565
     7  C    0.028990
     8  C   -0.022570
     9  C   -0.004978
    10  C   -0.004981
 Electronic spatial extent (au):  <R**2>=           1187.4103
 Charge=             -0.0000 electrons
 Dipole moment (field-independent basis, Debye):
    X=              0.0000    Y=             -0.6121    Z=             -0.0000  Tot=              0.6121
 Quadrupole moment (field-independent basis, Debye-Ang):
   XX=            -62.9490   YY=            -56.8180   ZZ=            -59.7079
   XY=              0.0000   XZ=             -4.2545   YZ=              0.0000
 Traceless Quadrupole moment (field-independent basis, Debye-Ang):
   XX=             -3.1241   YY=              3.0070   ZZ=              0.1171
   XY=              0.0000   XZ=             -4.2545   YZ=              0.0000
 Octapole moment (field-independent basis, Debye-Ang**2):
  XXX=             -0.0001  YYY=              1.4569  ZZZ=              0.0001  XYY=             -0.0000
  XXY=             -3.0642  XXZ=             -0.0000  XZZ=              0.0000  YZZ=              1.4414
  YYZ=             -0.0001  XYZ=             -0.7170
 Hexadecapole moment (field-independent basis, Debye-Ang**3):
 XXXX=           -913.3146 YYYY=           -389.3680 ZZZZ=           -350.5583 XXXY=              0.0001
 XXXZ=            -27.6989 YYYX=             -0.0001 YYYZ=              0.0001 ZZZX=            -18.9188
 ZZZY=             -0.0000 XXYY=           -213.3395 XXZZ=           -216.2264 YYZZ=           -123.7112
 XXYZ=              0.0003 YYXZ=             -2.0445 ZZXY=              0.0003
 N-N= 5.192802154615D+02 E-N=-1.939265353631D+03  KE= 3.865603896686D+02
  Exact polarizability: 149.991   0.000 119.775  -6.866  -0.000 116.459
 Approx polarizability: 214.273   0.001 178.363  -8.812  -0.001 190.601
 D2PCM: PCM CHGder 2nd derivatives, FixD1E=F FixD2E=F DoIter=F DoCFld=F I1PDM=0
 Calling FoFJK, ICntrl=    100127 FMM=F ISym2X=0 I1Cent= 0 IOpClX= 0 NMat=1 NMatS=1 NMatT=0.
 Full mass-weighted force constant matrix:
 Low frequencies --- -259.9826  -43.5228  -42.6286  -14.5224   -0.0005   -0.0005
 Low frequencies ---   -0.0004  123.7235  134.9017
 ******    1 imaginary frequencies (negative Signs) ****** 
 Diagonal vibrational polarizability:
        8.0431321       2.2629543       5.6825255
 Harmonic frequencies (cm**-1), IR intensities (KM/Mole), Raman scattering
 activities (A**4/AMU), depolarization ratios for plane and unpolarized
 incident light, reduced masses (AMU), force constants (mDyne/A),
 and normal coordinates:
                      1                      2                      3
                      A                      A                      A
 Frequencies --   -259.9824               123.5190               134.8483
 Red. masses --      8.8112                 3.2984                 4.2594
 Frc consts  --      0.3509                 0.0296                 0.0456
 IR Inten    --      0.0908                 0.0681                 0.4912
  Atom  AN      X      Y      Z        X      Y      Z        X      Y      Z
     1   6     0.05   0.04  -0.05     0.07   0.03  -0.13     0.05   0.06   0.01
     2   6     0.14  -0.05   0.06    -0.02   0.14  -0.04    -0.17   0.09  -0.10
     3   6     0.44  -0.02   0.32    -0.07   0.06   0.07    -0.12   0.09  -0.08
     4   6    -0.44  -0.02  -0.32     0.07   0.06  -0.07    -0.12  -0.09  -0.08
     5   6    -0.14  -0.05  -0.06     0.02   0.14   0.04    -0.17  -0.09  -0.10
     6   6     0.14   0.02   0.05     0.08  -0.12  -0.06     0.22   0.04   0.12
     7   6    -0.05   0.04   0.05    -0.07   0.03   0.13     0.05  -0.06   0.01
     8   6    -0.14   0.02  -0.05    -0.08  -0.12   0.06     0.22  -0.04   0.12
     9   6    -0.07   0.01  -0.05     0.00  -0.11  -0.09     0.02  -0.04   0.03
    10   6     0.07   0.01   0.05    -0.00  -0.11   0.09     0.02   0.04   0.03
    11   1    -0.06   0.04  -0.09     0.12   0.07  -0.24     0.10   0.06   0.04
    12   1    -0.00   0.02  -0.02    -0.03   0.27  -0.06    -0.20   0.09  -0.11
    13   1     0.06  -0.04   0.06    -0.14   0.11   0.16    -0.16   0.09  -0.08
    14   1    -0.06  -0.04  -0.06     0.14   0.11  -0.16    -0.16  -0.09  -0.08
    15   1     0.00   0.02   0.02     0.03   0.27   0.06    -0.20  -0.09  -0.11
    16   1     0.11  -0.01   0.02     0.14  -0.23  -0.10     0.38   0.01   0.21
    17   1     0.06   0.04   0.09    -0.12   0.07   0.24     0.10  -0.06   0.04
    18   1    -0.11  -0.01  -0.02    -0.14  -0.23   0.10     0.38  -0.01   0.21
    19   1    -0.17  -0.01   0.22     0.04  -0.13  -0.16    -0.06   0.12   0.09
    20   1     0.15   0.03  -0.09    -0.01  -0.19  -0.13     0.04  -0.14  -0.02
    21   1     0.17  -0.01  -0.22    -0.04  -0.13   0.16    -0.06  -0.12   0.09
    22   1    -0.15   0.03   0.09     0.01  -0.19   0.13     0.04   0.14  -0.02
                      4                      5                      6
                      A                      A                      A
 Frequencies --    182.3438               249.3163               294.8336
 Red. masses --      3.9668                 3.4016                 3.6546
 Frc consts  --      0.0777                 0.1246                 0.1872
 IR Inten    --      0.5054                 0.1007                 0.1302
  Atom  AN      X      Y      Z        X      Y      Z        X      Y      Z
     1   6     0.22  -0.02   0.10     0.16   0.06   0.06    -0.10   0.00  -0.11
     2   6     0.08  -0.01  -0.01     0.09   0.09   0.06    -0.07  -0.02  -0.14
     3   6    -0.04   0.03  -0.10    -0.06   0.09   0.01     0.05  -0.03  -0.12
     4   6     0.04   0.03   0.10    -0.06  -0.09   0.01    -0.05  -0.03   0.12
     5   6    -0.08  -0.01   0.01     0.09  -0.09   0.06     0.07  -0.02   0.14
     6   6     0.22   0.00   0.08    -0.03   0.06  -0.04     0.13   0.02  -0.01
     7   6    -0.22  -0.02  -0.10     0.16  -0.06   0.06     0.10   0.00   0.11
     8   6    -0.22   0.00  -0.08    -0.03  -0.06  -0.04    -0.13   0.02   0.01
     9   6    -0.03   0.01   0.05    -0.16  -0.06  -0.09    -0.19   0.02   0.01
    10   6     0.03   0.01  -0.05    -0.16   0.06  -0.09     0.19   0.02  -0.01
    11   1     0.35  -0.05   0.19     0.35   0.04   0.14    -0.25   0.01  -0.16
    12   1     0.07  -0.03  -0.01     0.20   0.08   0.11    -0.20  -0.03  -0.21
    13   1    -0.04   0.02  -0.11    -0.05   0.10   0.03     0.13  -0.04  -0.11
    14   1     0.04   0.02   0.11    -0.05  -0.10   0.03    -0.13  -0.04   0.11
    15   1    -0.07  -0.03   0.01     0.20  -0.08   0.11     0.20  -0.03   0.21
    16   1     0.32   0.00   0.15    -0.05   0.04  -0.06     0.20   0.05   0.06
    17   1    -0.35  -0.05  -0.19     0.35  -0.04   0.14     0.25   0.01   0.16
    18   1    -0.32   0.00  -0.15    -0.05  -0.04  -0.06    -0.20   0.05  -0.06
    19   1     0.04  -0.15   0.06    -0.15   0.02  -0.21    -0.14   0.03  -0.12
    20   1     0.00   0.12   0.10    -0.29  -0.11  -0.08    -0.31   0.02   0.05
    21   1    -0.04  -0.15  -0.06    -0.15  -0.02  -0.21     0.14   0.03   0.12
    22   1    -0.00   0.12  -0.10    -0.29   0.11  -0.08     0.31   0.02  -0.05
                      7                      8                      9
                      A                      A                      A
 Frequencies --    416.4047               444.8321               556.9796
 Red. masses --      1.9417                 1.7776                 2.6345
 Frc consts  --      0.1984                 0.2072                 0.4815
 IR Inten    --      0.0425                 0.6368                 1.2496
  Atom  AN      X      Y      Z        X      Y      Z        X      Y      Z
     1   6    -0.06   0.01  -0.02     0.07  -0.01   0.04    -0.12   0.04  -0.06
     2   6    -0.10   0.01  -0.04     0.01  -0.00  -0.01     0.16  -0.02   0.10
     3   6     0.00   0.01   0.02    -0.08   0.02  -0.07    -0.08   0.02  -0.03
     4   6    -0.00   0.01  -0.02    -0.08  -0.02  -0.07     0.08   0.02   0.03
     5   6     0.10   0.01   0.04     0.01   0.00  -0.01    -0.16  -0.02  -0.10
     6   6     0.06  -0.01   0.05    -0.08   0.01  -0.06     0.09  -0.01   0.07
     7   6     0.06   0.01   0.02     0.07   0.01   0.04     0.12   0.04   0.06
     8   6    -0.06  -0.01  -0.05    -0.08  -0.01  -0.06    -0.09  -0.01  -0.07
     9   6     0.11  -0.01   0.08     0.05  -0.01   0.07     0.01  -0.01  -0.02
    10   6    -0.11  -0.01  -0.08     0.05   0.01   0.07    -0.01  -0.01   0.02
    11   1    -0.09   0.01  -0.04     0.18  -0.03   0.12    -0.36   0.07  -0.20
    12   1    -0.20   0.04  -0.09    -0.02   0.00  -0.03     0.36  -0.06   0.20
    13   1    -0.06   0.00  -0.02    -0.13   0.01  -0.09     0.01   0.01   0.01
    14   1     0.06   0.00   0.02    -0.13  -0.01  -0.09    -0.01   0.01  -0.01
    15   1     0.20   0.04   0.09    -0.02  -0.00  -0.03    -0.36  -0.06  -0.20
    16   1     0.13  -0.02   0.10    -0.08   0.01  -0.06    -0.05  -0.01  -0.02
    17   1     0.09   0.01   0.04     0.18   0.03   0.12     0.36   0.07   0.20
    18   1    -0.13  -0.02  -0.10    -0.08  -0.01  -0.06     0.05  -0.01   0.02
    19   1     0.11  -0.23   0.35     0.03  -0.24   0.39     0.09  -0.21  -0.02
    20   1     0.38   0.17   0.11     0.36   0.18   0.10     0.05   0.13   0.05
    21   1    -0.11  -0.23  -0.35     0.03   0.24   0.39    -0.09  -0.21   0.02
    22   1    -0.38   0.17  -0.11     0.36  -0.18   0.10    -0.05   0.13  -0.05
                     10                     11                     12
                      A                      A                      A
 Frequencies --    582.5220               705.5652               705.8060
 Red. masses --      2.4949                 1.2008                 1.2693
 Frc consts  --      0.4988                 0.3522                 0.3726
 IR Inten    --      4.9268                86.5326                 1.0855
  Atom  AN      X      Y      Z        X      Y      Z        X      Y      Z
     1   6    -0.09   0.04  -0.06    -0.05  -0.01  -0.04    -0.05  -0.01  -0.05
     2   6     0.15  -0.03   0.07     0.01  -0.01   0.00     0.02  -0.02   0.00
     3   6    -0.12   0.03  -0.07     0.02  -0.01   0.02    -0.00  -0.01   0.01
     4   6    -0.12  -0.03  -0.07     0.02   0.01   0.02     0.00  -0.01  -0.01
     5   6     0.15   0.03   0.07     0.01   0.01   0.00    -0.02  -0.02  -0.00
     6   6     0.07   0.01   0.04    -0.01   0.01  -0.03    -0.01   0.02  -0.03
     7   6    -0.09  -0.04  -0.06    -0.05   0.01  -0.04     0.05  -0.01   0.05
     8   6     0.07  -0.01   0.04    -0.01  -0.01  -0.03     0.01   0.02   0.03
     9   6    -0.01  -0.01   0.02    -0.04  -0.02  -0.00     0.06   0.03  -0.00
    10   6    -0.01   0.01   0.02    -0.04   0.02  -0.00    -0.06   0.03   0.00
    11   1    -0.28   0.06  -0.17     0.21  -0.05   0.13     0.18  -0.05   0.13
    12   1     0.42  -0.08   0.21     0.16  -0.02   0.08     0.15  -0.02   0.07
    13   1    -0.09   0.02  -0.08     0.04  -0.03  -0.01    -0.01  -0.03  -0.03
    14   1    -0.09  -0.02  -0.08     0.04   0.03  -0.01     0.02  -0.03   0.03
    15   1     0.42   0.08   0.21     0.16   0.02   0.08    -0.15  -0.02  -0.07
    16   1    -0.04   0.00  -0.04     0.52  -0.04   0.29     0.52  -0.04   0.28
    17   1    -0.28  -0.06  -0.17     0.21   0.05   0.13    -0.18  -0.05  -0.12
    18   1    -0.04  -0.00  -0.04     0.52   0.04   0.29    -0.52  -0.04  -0.28
    19   1    -0.11   0.11   0.19    -0.01  -0.14   0.06     0.04   0.16  -0.12
    20   1     0.11  -0.07  -0.04     0.04   0.10   0.04    -0.06  -0.10  -0.04
    21   1    -0.11  -0.11   0.19    -0.01   0.14   0.06    -0.04   0.16   0.12
    22   1     0.11   0.07  -0.04     0.04  -0.09   0.04     0.06  -0.10   0.04
                     13                     14                     15
                      A                      A                      A
 Frequencies --    771.4277               776.3918               802.3797
 Red. masses --      1.3354                 1.2733                 3.3559
 Frc consts  --      0.4682                 0.4522                 1.2730
 IR Inten    --      0.5467                89.0975                 0.0382
  Atom  AN      X      Y      Z        X      Y      Z        X      Y      Z
     1   6    -0.01   0.03   0.02     0.01   0.00   0.01     0.05   0.02  -0.03
     2   6    -0.06   0.05  -0.05    -0.09   0.01  -0.05     0.00  -0.06  -0.13
     3   6     0.03  -0.02  -0.00     0.02  -0.01  -0.00    -0.04  -0.14   0.05
     4   6    -0.03  -0.02   0.00     0.02   0.01  -0.00     0.04  -0.14  -0.05
     5   6     0.06   0.05   0.05    -0.09  -0.01  -0.05    -0.00  -0.06   0.13
     6   6    -0.01  -0.03   0.04     0.01  -0.02   0.02     0.10   0.08  -0.01
     7   6     0.01   0.03  -0.02     0.01  -0.00   0.01    -0.05   0.02   0.03
     8   6     0.01  -0.03  -0.04     0.01   0.02   0.02    -0.10   0.08   0.01
     9   6    -0.03  -0.03   0.01    -0.00   0.01  -0.01     0.15   0.09  -0.10
    10   6     0.03  -0.03  -0.01    -0.00  -0.01  -0.01    -0.15   0.09   0.10
    11   1     0.12   0.03   0.05     0.11  -0.01   0.05    -0.13  -0.01   0.08
    12   1     0.44  -0.12   0.22     0.48  -0.18   0.25     0.11   0.01  -0.08
    13   1     0.35   0.03   0.26     0.25   0.02   0.17     0.16  -0.14   0.13
    14   1    -0.35   0.03  -0.26     0.25  -0.02   0.17    -0.17  -0.14  -0.13
    15   1    -0.44  -0.12  -0.22     0.48   0.18   0.25    -0.11   0.01   0.08
    16   1    -0.02  -0.03   0.03    -0.18  -0.00  -0.10    -0.23  -0.05  -0.34
    17   1    -0.12   0.03  -0.05     0.11   0.01   0.05     0.13  -0.01  -0.08
    18   1     0.02  -0.03  -0.03    -0.18   0.00  -0.10     0.23  -0.05   0.34
    19   1    -0.03  -0.05   0.06    -0.02  -0.02   0.07     0.19   0.09  -0.23
    20   1     0.01   0.04   0.04     0.08   0.03  -0.02    -0.03   0.10  -0.06
    21   1     0.03  -0.05  -0.06    -0.02   0.02   0.07    -0.19   0.09   0.23
    22   1    -0.01   0.04  -0.04     0.08  -0.03  -0.02     0.03   0.10   0.06
                     16                     17                     18
                      A                      A                      A
 Frequencies --    818.9490               827.5989               837.0485
 Red. masses --      4.3039                 5.2006                 4.0743
 Frc consts  --      1.7007                 2.0987                 1.6819
 IR Inten    --      0.8022                18.5312                 1.7368
  Atom  AN      X      Y      Z        X      Y      Z        X      Y      Z
     1   6    -0.07   0.01   0.05     0.02  -0.25  -0.07    -0.01   0.21   0.06
     2   6    -0.03   0.08   0.12    -0.13  -0.01   0.20     0.15   0.01  -0.13
     3   6     0.03   0.18  -0.09    -0.04   0.10   0.06     0.02  -0.08  -0.06
     4   6     0.03  -0.18  -0.09    -0.04  -0.10   0.06    -0.02  -0.08   0.06
     5   6    -0.03  -0.08   0.12    -0.13   0.01   0.20    -0.15   0.01   0.13
     6   6    -0.11  -0.12   0.05     0.12   0.02  -0.13    -0.12  -0.01   0.10
     7   6    -0.07  -0.01   0.05     0.02   0.25  -0.07     0.01   0.21  -0.06
     8   6    -0.11   0.12   0.05     0.12  -0.02  -0.13     0.12  -0.01  -0.10
     9   6     0.14   0.12  -0.13     0.04  -0.13  -0.04     0.02  -0.12  -0.04
    10   6     0.14  -0.12  -0.13     0.04   0.13  -0.04    -0.02  -0.12   0.04
    11   1     0.21   0.06  -0.10    -0.04  -0.21  -0.19    -0.01   0.19   0.13
    12   1     0.01  -0.12   0.16    -0.01   0.17   0.24    -0.24  -0.05  -0.33
    13   1    -0.14   0.22  -0.07     0.07  -0.03  -0.19    -0.15   0.01   0.09
    14   1    -0.14  -0.22  -0.07     0.07   0.03  -0.19     0.15   0.01  -0.09
    15   1     0.01   0.12   0.16    -0.01  -0.17   0.24     0.24  -0.05   0.33
    16   1     0.09   0.03   0.29    -0.12   0.25  -0.12     0.18  -0.21   0.14
    17   1     0.21  -0.06  -0.10    -0.04   0.21  -0.19     0.01   0.19  -0.13
    18   1     0.09  -0.03   0.29    -0.12  -0.25  -0.12    -0.18  -0.21  -0.14
    19   1     0.14   0.13  -0.14    -0.02  -0.04   0.04    -0.05  -0.03   0.08
    20   1     0.06   0.11  -0.12    -0.00   0.02   0.04     0.01   0.01   0.03
    21   1     0.14  -0.13  -0.14    -0.02   0.04   0.04     0.05  -0.03  -0.08
    22   1     0.06  -0.11  -0.12    -0.00  -0.02   0.04    -0.01   0.01  -0.03
                     19                     20                     21
                      A                      A                      A
 Frequencies --    892.1089               908.6546               917.6117
 Red. masses --      1.8657                 1.6553                 1.3163
 Frc consts  --      0.8748                 0.8052                 0.6530
 IR Inten    --     14.7983                11.0864                 0.9394
  Atom  AN      X      Y      Z        X      Y      Z        X      Y      Z
     1   6     0.01  -0.03  -0.01    -0.01  -0.01   0.02     0.02   0.01  -0.01
     2   6     0.03   0.01   0.02     0.02   0.01   0.02    -0.04  -0.03  -0.05
     3   6    -0.09  -0.09   0.05     0.05   0.04  -0.03    -0.00   0.01   0.01
     4   6     0.09  -0.09  -0.05     0.05  -0.04  -0.03     0.00   0.01  -0.01
     5   6    -0.03   0.01  -0.02     0.02  -0.01   0.02     0.04  -0.03   0.05
     6   6    -0.02   0.06  -0.06     0.03  -0.08   0.05    -0.00   0.06  -0.03
     7   6    -0.01  -0.03   0.01    -0.01   0.01   0.02    -0.02   0.01   0.01
     8   6     0.02   0.06   0.06     0.03   0.08   0.05     0.00   0.06   0.03
     9   6    -0.10   0.01  -0.04    -0.10  -0.04  -0.05    -0.04  -0.03  -0.04
    10   6     0.10   0.01   0.04    -0.10   0.04  -0.05     0.04  -0.03   0.04
    11   1    -0.02  -0.06   0.09    -0.05   0.03  -0.12    -0.05  -0.01   0.07
    12   1    -0.05   0.28  -0.05    -0.26  -0.01  -0.12     0.31  -0.17   0.14
    13   1     0.11  -0.04   0.27     0.39   0.00   0.03    -0.50   0.02  -0.19
    14   1    -0.11  -0.04  -0.27     0.39  -0.00   0.03     0.50   0.02   0.19
    15   1     0.05   0.28   0.05    -0.26   0.01  -0.12    -0.31  -0.17  -0.14
    16   1     0.16   0.10   0.09    -0.03  -0.12  -0.02    -0.01   0.06  -0.03
    17   1     0.02  -0.06  -0.09    -0.05  -0.03  -0.12     0.05  -0.01  -0.07
    18   1    -0.16   0.10  -0.09    -0.03   0.12  -0.02     0.01   0.06   0.03
    19   1    -0.17  -0.10   0.33    -0.17  -0.14   0.30    -0.05  -0.11   0.10
    20   1     0.20   0.22   0.00     0.23   0.10  -0.05     0.13   0.02  -0.05
    21   1     0.17  -0.10  -0.33    -0.17   0.14   0.30     0.05  -0.11  -0.10
    22   1    -0.20   0.22  -0.00     0.23  -0.10  -0.05    -0.13   0.02   0.05
                     22                     23                     24
                      A                      A                      A
 Frequencies --    946.9054               947.9125               954.5571
 Red. masses --      1.7346                 1.4823                 1.3537
 Frc consts  --      0.9163                 0.7848                 0.7267
 IR Inten    --      7.2063                 1.5282                 7.0710
  Atom  AN      X      Y      Z        X      Y      Z        X      Y      Z
     1   6    -0.06  -0.02   0.00    -0.09   0.01  -0.03    -0.08   0.02  -0.05
     2   6     0.04   0.02  -0.01     0.02  -0.00   0.00     0.02  -0.01   0.02
     3   6    -0.05  -0.02   0.05    -0.02  -0.00   0.03     0.01   0.00  -0.02
     4   6    -0.05   0.02   0.05     0.02  -0.00  -0.03     0.01  -0.00  -0.02
     5   6     0.04  -0.02  -0.01    -0.02  -0.00  -0.00     0.02   0.01   0.02
     6   6     0.05   0.08   0.00     0.05   0.04   0.02     0.03  -0.04   0.02
     7   6    -0.06   0.02   0.00     0.09   0.01   0.03    -0.08  -0.02  -0.05
     8   6     0.05  -0.08   0.00    -0.05   0.04  -0.02     0.03   0.04   0.02
     9   6     0.02   0.08  -0.09    -0.01  -0.06   0.05     0.01  -0.04   0.04
    10   6     0.02  -0.08  -0.09     0.01  -0.06  -0.05     0.01   0.04   0.04
    11   1     0.10  -0.09   0.27     0.41  -0.08   0.34     0.53  -0.05   0.24
    12   1    -0.11   0.17  -0.10    -0.07   0.06  -0.05    -0.10   0.01  -0.04
    13   1     0.06   0.07   0.34    -0.11   0.05   0.12     0.01  -0.03  -0.11
    14   1     0.06  -0.07   0.34     0.11   0.05  -0.12     0.01   0.03  -0.11
    15   1    -0.11  -0.17  -0.10     0.07   0.06   0.05    -0.10  -0.01  -0.04
    16   1    -0.15   0.31   0.04    -0.27   0.19  -0.09    -0.21  -0.11  -0.19
    17   1     0.10   0.09   0.27    -0.41  -0.08  -0.34     0.53   0.05   0.25
    18   1    -0.15  -0.31   0.04     0.27   0.19   0.09    -0.21   0.11  -0.19
    19   1    -0.05   0.06   0.12     0.02  -0.04  -0.07     0.01   0.04  -0.04
    20   1     0.15   0.19  -0.07    -0.08  -0.13   0.03    -0.06  -0.13   0.01
    21   1    -0.05  -0.06   0.12    -0.02  -0.04   0.07     0.01  -0.04  -0.04
    22   1     0.15  -0.19  -0.07     0.08  -0.13  -0.03    -0.06   0.13   0.01
                     25                     26                     27
                      A                      A                      A
 Frequencies --    958.8938               982.4865               983.2122
 Red. masses --      1.6302                 1.7467                 1.5693
 Frc consts  --      0.8832                 0.9934                 0.8938
 IR Inten    --      0.0312                24.8901                 2.9845
  Atom  AN      X      Y      Z        X      Y      Z        X      Y      Z
     1   6     0.04  -0.01   0.05     0.01  -0.00  -0.01    -0.01  -0.02   0.02
     2   6    -0.00   0.02  -0.02     0.01   0.02   0.00     0.01  -0.01   0.00
     3   6    -0.02  -0.02   0.05    -0.08  -0.08   0.06     0.04   0.06  -0.06
     4   6     0.02  -0.02  -0.05    -0.08   0.08   0.06    -0.04   0.06   0.06
     5   6     0.00   0.02   0.02     0.01  -0.02   0.00    -0.01  -0.01  -0.00
     6   6     0.02   0.07  -0.01    -0.03  -0.07   0.04     0.01   0.06  -0.05
     7   6    -0.04  -0.01  -0.05     0.01   0.00  -0.01     0.01  -0.02  -0.02
     8   6    -0.02   0.07   0.01    -0.03   0.07   0.04    -0.01   0.06   0.05
     9   6     0.02  -0.08   0.09     0.04  -0.07  -0.07     0.02  -0.06  -0.08
    10   6    -0.02  -0.08  -0.09     0.04   0.07  -0.07    -0.02  -0.06   0.08
    11   1    -0.43   0.02  -0.11     0.05   0.03  -0.14    -0.09  -0.05   0.14
    12   1     0.05   0.06   0.00     0.04   0.21   0.00    -0.09  -0.08  -0.04
    13   1    -0.07   0.05   0.21    -0.08  -0.03   0.20     0.34   0.03  -0.02
    14   1     0.07   0.05  -0.21    -0.08   0.03   0.20    -0.34   0.03   0.02
    15   1    -0.05   0.06  -0.00     0.04  -0.21   0.00     0.09  -0.08   0.04
    16   1     0.07   0.25   0.16     0.03  -0.13   0.04     0.04   0.14   0.02
    17   1     0.43   0.02   0.11     0.05  -0.03  -0.14     0.09  -0.05  -0.14
    18   1    -0.07   0.25  -0.16     0.03   0.13   0.04    -0.04   0.14  -0.02
    19   1     0.04   0.06  -0.13     0.14  -0.26  -0.11     0.11  -0.29  -0.06
    20   1    -0.18  -0.25   0.05     0.26  -0.32  -0.24     0.29  -0.24  -0.23
    21   1    -0.04   0.06   0.13     0.14   0.26  -0.11    -0.11  -0.29   0.06
    22   1     0.18  -0.25  -0.05     0.26   0.32  -0.24    -0.29  -0.24   0.23
                     28                     29                     30
                      A                      A                      A
 Frequencies --    997.2093              1070.3967              1071.3909
 Red. masses --      1.4638                 1.6222                 1.6356
 Frc consts  --      0.8576                 1.0950                 1.1062
 IR Inten    --     13.9744                 0.1755                 4.5605
  Atom  AN      X      Y      Z        X      Y      Z        X      Y      Z
     1   6     0.00  -0.05   0.01    -0.03  -0.09   0.03    -0.03  -0.09   0.03
     2   6     0.03  -0.01  -0.02     0.04   0.06  -0.07     0.03   0.06  -0.07
     3   6    -0.06   0.03  -0.05     0.04   0.04  -0.01     0.05   0.04  -0.01
     4   6    -0.06  -0.03  -0.05    -0.04   0.04   0.01     0.05  -0.04  -0.01
     5   6     0.03   0.01  -0.02    -0.04   0.06   0.07     0.03  -0.06  -0.07
     6   6    -0.05  -0.01  -0.03    -0.02  -0.05   0.03    -0.01  -0.04   0.03
     7   6     0.00   0.05   0.01     0.03  -0.09  -0.03    -0.03   0.09   0.03
     8   6    -0.05   0.01  -0.03     0.02  -0.05  -0.03    -0.01   0.04   0.03
     9   6     0.05  -0.02   0.06     0.01   0.02  -0.01    -0.02  -0.02   0.01
    10   6     0.05   0.02   0.06    -0.01   0.02   0.01    -0.02   0.02   0.01
    11   1    -0.05  -0.07   0.07    -0.24  -0.20   0.36    -0.24  -0.19   0.33
    12   1    -0.06   0.03  -0.07     0.18   0.42  -0.05     0.22   0.40  -0.02
    13   1     0.44   0.08   0.31    -0.08   0.04  -0.09    -0.16   0.04  -0.14
    14   1     0.44  -0.08   0.31     0.08   0.04   0.09    -0.16  -0.04  -0.14
    15   1    -0.06  -0.03  -0.07    -0.18   0.42   0.05     0.22  -0.40  -0.02
    16   1     0.13  -0.03   0.07    -0.04  -0.09  -0.01    -0.05  -0.08  -0.02
    17   1    -0.05   0.07   0.07     0.24  -0.20  -0.36    -0.24   0.19   0.33
    18   1     0.13   0.03   0.07     0.04  -0.09   0.01    -0.05   0.08  -0.02
    19   1    -0.03   0.25  -0.06     0.02   0.01  -0.03    -0.01  -0.03   0.01
    20   1    -0.13  -0.22  -0.00    -0.01   0.06   0.01    -0.02  -0.03   0.01
    21   1    -0.03  -0.25  -0.06    -0.02   0.01   0.03    -0.01   0.03   0.01
    22   1    -0.13   0.22  -0.00     0.01   0.06  -0.01    -0.02   0.03   0.01
                     31                     32                     33
                      A                      A                      A
 Frequencies --   1097.1508              1098.6106              1116.9028
 Red. masses --      1.2531                 1.1643                 1.3464
 Frc consts  --      0.8887                 0.8280                 0.9896
 IR Inten    --      0.0195                 0.2299                 1.4703
  Atom  AN      X      Y      Z        X      Y      Z        X      Y      Z
     1   6    -0.01  -0.04   0.00    -0.01  -0.02   0.01     0.01  -0.06  -0.03
     2   6     0.02  -0.03  -0.03     0.01  -0.03  -0.01     0.03  -0.00  -0.06
     3   6    -0.01   0.07   0.01    -0.00   0.06   0.01     0.01   0.01   0.01
     4   6     0.01   0.07  -0.01    -0.00  -0.06   0.01    -0.01   0.01  -0.01
     5   6    -0.02  -0.03   0.03     0.01   0.03  -0.01    -0.03  -0.00   0.06
     6   6     0.00  -0.01  -0.02     0.04  -0.00  -0.02    -0.05  -0.02   0.04
     7   6     0.01  -0.04  -0.00    -0.01   0.02   0.01    -0.01  -0.06   0.03
     8   6    -0.00  -0.01   0.02     0.04   0.00  -0.02     0.05  -0.02  -0.04
     9   6    -0.00   0.03  -0.01    -0.01  -0.01  -0.00     0.01   0.03  -0.03
    10   6     0.00   0.03   0.01    -0.01   0.01  -0.00    -0.01   0.03   0.03
    11   1    -0.09  -0.08   0.11    -0.12  -0.06   0.15     0.19   0.01  -0.28
    12   1    -0.10  -0.35  -0.07    -0.08  -0.33  -0.03     0.02  -0.02  -0.07
    13   1    -0.10   0.27   0.44    -0.21   0.22   0.30    -0.06   0.06   0.08
    14   1     0.10   0.27  -0.44    -0.21  -0.22   0.30     0.06   0.06  -0.08
    15   1     0.10  -0.35   0.07    -0.08   0.33  -0.03    -0.02  -0.02   0.07
    16   1     0.07  -0.14  -0.07     0.05  -0.21  -0.17    -0.11   0.37   0.30
    17   1     0.09  -0.08  -0.11    -0.12   0.06   0.15    -0.19   0.01   0.28
    18   1    -0.07  -0.14   0.07     0.05   0.21  -0.17     0.11   0.37  -0.30
    19   1    -0.02   0.06   0.03     0.11  -0.23  -0.10     0.14  -0.20  -0.15
    20   1    -0.02   0.10   0.04    -0.00   0.02   0.02    -0.00   0.17   0.03
    21   1     0.02   0.06  -0.03     0.11   0.23  -0.10    -0.14  -0.20   0.15
    22   1     0.02   0.10  -0.04    -0.00  -0.02   0.02     0.00   0.17  -0.03
                     34                     35                     36
                      A                      A                      A
 Frequencies --   1123.5490              1132.6968              1148.3293
 Red. masses --      1.4240                 1.1832                 1.1815
 Frc consts  --      1.0591                 0.8944                 0.9180
 IR Inten    --      3.0891                 5.3405                 4.9192
  Atom  AN      X      Y      Z        X      Y      Z        X      Y      Z
     1   6     0.00  -0.06  -0.03    -0.01  -0.03  -0.01     0.00  -0.02  -0.01
     2   6     0.04  -0.01  -0.06     0.02   0.00  -0.03     0.00  -0.00  -0.03
     3   6     0.01   0.02  -0.01    -0.01   0.01  -0.03     0.05   0.01   0.05
     4   6     0.01  -0.02  -0.01     0.01   0.01   0.03     0.05  -0.01   0.05
     5   6     0.04   0.01  -0.06    -0.02   0.00   0.03     0.00   0.00  -0.03
     6   6    -0.01  -0.02   0.06     0.03  -0.02   0.05    -0.03  -0.00  -0.02
     7   6     0.00   0.06  -0.03     0.01  -0.03   0.01     0.00   0.02  -0.01
     8   6    -0.01   0.02   0.06    -0.03  -0.02  -0.05    -0.03   0.00  -0.02
     9   6    -0.03  -0.03   0.04     0.02   0.00  -0.03    -0.00  -0.03  -0.01
    10   6    -0.03   0.03   0.04    -0.02   0.00   0.03    -0.00   0.03  -0.01
    11   1     0.17   0.01  -0.30     0.04   0.01  -0.13     0.05  -0.01  -0.03
    12   1     0.02  -0.09  -0.08     0.04  -0.00  -0.02    -0.02  -0.19  -0.02
    13   1    -0.11   0.10   0.12    -0.00   0.04   0.04    -0.27   0.07   0.05
    14   1    -0.11  -0.10   0.12     0.00   0.04  -0.04    -0.27  -0.07   0.05
    15   1     0.02   0.09  -0.08    -0.04  -0.00   0.02    -0.02   0.19  -0.02
    16   1    -0.17   0.37   0.26    -0.11   0.14   0.08     0.01   0.05   0.05
    17   1     0.17  -0.01  -0.30    -0.04   0.01   0.13     0.05   0.01  -0.03
    18   1    -0.17  -0.37   0.26     0.11   0.14  -0.08     0.01  -0.05   0.05
    19   1     0.06  -0.17  -0.07    -0.24   0.43   0.25    -0.24   0.35   0.27
    20   1    -0.13   0.06   0.12     0.18  -0.25  -0.19     0.14  -0.26  -0.15
    21   1     0.06   0.17  -0.07     0.24   0.43  -0.25    -0.24  -0.35   0.27
    22   1    -0.13  -0.06   0.12    -0.18  -0.25   0.19     0.14   0.26  -0.15
                     37                     38                     39
                      A                      A                      A
 Frequencies --   1277.1511              1281.2543              1309.1849
 Red. masses --      1.6568                 1.6570                 1.6208
 Frc consts  --      1.5923                 1.6027                 1.6368
 IR Inten    --      4.2689                 2.5180                 1.4129
  Atom  AN      X      Y      Z        X      Y      Z        X      Y      Z
     1   6    -0.01   0.02   0.03     0.01  -0.02  -0.03    -0.02  -0.04   0.03
     2   6     0.01  -0.03  -0.02    -0.01   0.03   0.03    -0.02  -0.03   0.03
     3   6    -0.02  -0.03   0.01     0.02   0.02  -0.02     0.06  -0.01  -0.08
     4   6    -0.02   0.03   0.01    -0.02   0.02   0.02    -0.06  -0.01   0.08
     5   6     0.01   0.03  -0.02     0.01   0.03  -0.03     0.02  -0.03  -0.03
     6   6    -0.01  -0.03   0.02     0.01   0.03  -0.03    -0.00   0.09   0.01
     7   6    -0.01  -0.02   0.03    -0.01  -0.02   0.03     0.02  -0.04  -0.03
     8   6    -0.01   0.03   0.02    -0.01   0.03   0.03     0.00   0.09  -0.01
     9   6     0.07  -0.12  -0.07     0.07  -0.12  -0.07     0.03  -0.04  -0.02
    10   6     0.07   0.12  -0.07    -0.07  -0.12   0.07    -0.03  -0.04   0.02
    11   1     0.05   0.06  -0.09    -0.04  -0.06   0.09     0.19   0.07  -0.32
    12   1     0.05   0.09  -0.02    -0.05  -0.10   0.02     0.06   0.35   0.04
    13   1    -0.10   0.03   0.12     0.10  -0.03  -0.12    -0.16   0.16   0.26
    14   1    -0.10  -0.03   0.12    -0.10  -0.03   0.12     0.16   0.16  -0.26
    15   1     0.05  -0.09  -0.02     0.05  -0.10  -0.02    -0.06   0.35  -0.04
    16   1     0.03  -0.18  -0.06    -0.03   0.17   0.05     0.07  -0.21  -0.17
    17   1     0.05  -0.06  -0.09     0.04  -0.06  -0.09    -0.19   0.07   0.31
    18   1     0.03   0.18  -0.06     0.03   0.17  -0.05    -0.07  -0.21   0.17
    19   1    -0.13   0.22   0.12    -0.13   0.22   0.12     0.02  -0.01  -0.02
    20   1    -0.25   0.42   0.26    -0.25   0.42   0.26    -0.03   0.05   0.03
    21   1    -0.13  -0.22   0.12     0.13   0.22  -0.12    -0.02  -0.01   0.02
    22   1    -0.25  -0.42   0.26     0.25   0.42  -0.26     0.03   0.05  -0.03
                     40                     41                     42
                      A                      A                      A
 Frequencies --   1309.4393              1401.4555              1421.7379
 Red. masses --      1.6143                 3.3210                 2.1464
 Frc consts  --      1.6309                 3.8431                 2.5562
 IR Inten    --      2.0776                15.8333                 9.5799
  Atom  AN      X      Y      Z        X      Y      Z        X      Y      Z
     1   6     0.02   0.04  -0.03    -0.08  -0.07   0.09    -0.06  -0.10   0.08
     2   6     0.02   0.04  -0.03     0.05   0.22   0.02     0.05   0.10  -0.07
     3   6    -0.06   0.01   0.08     0.05  -0.14  -0.04    -0.05   0.00   0.06
     4   6    -0.06  -0.01   0.08    -0.05  -0.14   0.04    -0.05  -0.00   0.06
     5   6     0.02  -0.04  -0.03    -0.05   0.22  -0.02     0.05  -0.10  -0.07
     6   6     0.00  -0.09  -0.01     0.05   0.00  -0.06     0.00   0.08   0.01
     7   6     0.02  -0.04  -0.03     0.08  -0.07  -0.09    -0.06   0.10   0.08
     8   6     0.00   0.09  -0.01    -0.05   0.00   0.06     0.00  -0.08   0.01
     9   6     0.03  -0.04  -0.02     0.03   0.05  -0.03     0.01   0.02  -0.01
    10   6     0.03   0.04  -0.02    -0.03   0.05   0.03     0.01  -0.02  -0.01
    11   1    -0.18  -0.07   0.31     0.08  -0.01  -0.13     0.18   0.01  -0.31
    12   1    -0.06  -0.37  -0.04    -0.10  -0.44   0.01    -0.01  -0.29  -0.08
    13   1     0.14  -0.16  -0.26    -0.23  -0.08   0.00     0.13  -0.15  -0.26
    14   1     0.14   0.16  -0.26     0.23  -0.08  -0.00     0.13   0.15  -0.26
    15   1    -0.07   0.37  -0.04     0.10  -0.44  -0.01    -0.01   0.29  -0.08
    16   1    -0.07   0.21   0.16     0.03   0.00  -0.08     0.08  -0.25  -0.20
    17   1    -0.18   0.07   0.31    -0.08  -0.01   0.13     0.18  -0.01  -0.31
    18   1    -0.07  -0.21   0.16    -0.03   0.00   0.08     0.08   0.25  -0.20
    19   1     0.02  -0.02  -0.02     0.03  -0.18   0.17     0.04   0.04  -0.09
    20   1    -0.04   0.06   0.04    -0.15  -0.12  -0.07     0.07   0.04  -0.02
    21   1     0.02   0.02  -0.02    -0.03  -0.18  -0.17     0.04  -0.04  -0.09
    22   1    -0.04  -0.06   0.04     0.15  -0.12   0.07     0.07  -0.04  -0.02
                     43                     44                     45
                      A                      A                      A
 Frequencies --   1429.6570              1447.0650              1457.5085
 Red. masses --      2.2154                 1.5720                 1.1375
 Frc consts  --      2.6679                 1.9394                 1.4237
 IR Inten    --      0.4338                 8.1480                 4.8663
  Atom  AN      X      Y      Z        X      Y      Z        X      Y      Z
     1   6    -0.04  -0.09   0.04    -0.02   0.00   0.03     0.01   0.01  -0.01
     2   6     0.05   0.02  -0.08    -0.00   0.07   0.03    -0.00  -0.04  -0.01
     3   6    -0.07   0.07   0.10     0.02  -0.06  -0.05    -0.01   0.03   0.01
     4   6     0.07   0.07  -0.10     0.02   0.06  -0.05     0.01   0.03  -0.01
     5   6    -0.05   0.02   0.08    -0.00  -0.07   0.03     0.00  -0.04   0.01
     6   6    -0.02   0.10   0.05     0.02  -0.03  -0.05    -0.01  -0.00   0.01
     7   6     0.04  -0.09  -0.04    -0.02  -0.00   0.03    -0.01   0.01   0.01
     8   6     0.02   0.10  -0.05     0.02   0.03  -0.05     0.01  -0.00  -0.01
     9   6    -0.02  -0.05   0.02    -0.04  -0.06   0.04     0.03   0.03  -0.03
    10   6     0.02  -0.05  -0.02    -0.04   0.06   0.04    -0.03   0.03   0.03
    11   1     0.16   0.00  -0.28    -0.01   0.01   0.03     0.00   0.00   0.01
    12   1     0.02  -0.16  -0.10    -0.03  -0.06   0.04     0.03   0.08  -0.01
    13   1     0.24  -0.14  -0.30    -0.09   0.01   0.11     0.04   0.02  -0.01
    14   1    -0.24  -0.14   0.30    -0.09  -0.01   0.11    -0.04   0.02   0.01
    15   1    -0.02  -0.16   0.10    -0.03   0.06   0.04    -0.03   0.08   0.01
    16   1     0.08  -0.30  -0.18    -0.02   0.10   0.03    -0.01   0.00   0.02
    17   1    -0.16   0.00   0.28    -0.01  -0.01   0.03    -0.00   0.00  -0.01
    18   1    -0.08  -0.30   0.18    -0.02  -0.10   0.03     0.01   0.00  -0.02
    19   1    -0.04   0.00   0.01     0.01   0.26  -0.40    -0.03  -0.26   0.41
    20   1    -0.02   0.00   0.05     0.40   0.21   0.06    -0.45  -0.22  -0.03
    21   1     0.04   0.00  -0.01     0.01  -0.26  -0.40     0.03  -0.26  -0.41
    22   1     0.02   0.00  -0.05     0.40  -0.21   0.06     0.45  -0.22   0.03
                     46                     47                     48
                      A                      A                      A
 Frequencies --   1468.7491              1563.6721              1574.4970
 Red. masses --      2.1890                 4.3695                 4.6047
 Frc consts  --      2.7822                 6.2946                 6.7256
 IR Inten    --      5.8900                 5.1260                 0.6493
  Atom  AN      X      Y      Z        X      Y      Z        X      Y      Z
     1   6    -0.04  -0.01   0.06    -0.11   0.08   0.21     0.12  -0.07  -0.24
     2   6     0.00   0.13   0.05     0.00  -0.13  -0.07    -0.02   0.10   0.07
     3   6     0.02  -0.12  -0.08    -0.02   0.08   0.07     0.02  -0.06  -0.05
     4   6     0.02   0.12  -0.08    -0.02  -0.08   0.07    -0.02  -0.06   0.05
     5   6     0.00  -0.13   0.05     0.00   0.13  -0.07     0.02   0.10  -0.07
     6   6     0.04  -0.03  -0.07     0.10  -0.11  -0.18    -0.10   0.12   0.20
     7   6    -0.04   0.01   0.06    -0.11  -0.08   0.21    -0.12  -0.07   0.24
     8   6     0.04   0.03  -0.07     0.10   0.11  -0.18     0.10   0.12  -0.20
     9   6     0.02   0.01  -0.01    -0.01   0.01   0.02    -0.01   0.00   0.02
    10   6     0.02  -0.01  -0.01    -0.01  -0.01   0.02     0.01   0.00  -0.02
    11   1    -0.01   0.02   0.00     0.15   0.25  -0.20    -0.16  -0.25   0.22
    12   1    -0.05  -0.14   0.06     0.13   0.27  -0.06    -0.10  -0.24   0.08
    13   1    -0.09  -0.03   0.14     0.03   0.03  -0.10    -0.04  -0.02   0.06
    14   1    -0.09   0.03   0.14     0.03  -0.03  -0.10     0.04  -0.02  -0.06
    15   1    -0.05   0.14   0.06     0.13  -0.27  -0.06     0.10  -0.24  -0.08
    16   1     0.00   0.11   0.00     0.01   0.27  -0.00    -0.02  -0.27   0.00
    17   1    -0.01  -0.02   0.00     0.15  -0.25  -0.20     0.16  -0.25  -0.22
    18   1     0.00  -0.11   0.00     0.01  -0.27  -0.00     0.02  -0.27  -0.00
    19   1    -0.02  -0.23   0.33     0.04  -0.09  -0.02     0.04  -0.11  -0.00
    20   1    -0.43  -0.19   0.01     0.03  -0.17  -0.08     0.00  -0.18  -0.07
    21   1    -0.02   0.23   0.33     0.04   0.09  -0.02    -0.04  -0.11   0.00
    22   1    -0.43   0.19   0.01     0.03   0.17  -0.08    -0.00  -0.18   0.07
                     49                     50                     51
                      A                      A                      A
 Frequencies --   2978.6166              2978.6895              3090.7453
 Red. masses --      1.0724                 1.0727                 1.0873
 Frc consts  --      5.6058                 5.6076                 6.1197
 IR Inten    --     83.0458                11.5192                16.0111
  Atom  AN      X      Y      Z        X      Y      Z        X      Y      Z
     1   6     0.00   0.00  -0.00     0.00   0.00  -0.00    -0.00   0.00  -0.00
     2   6    -0.00  -0.00   0.00    -0.00  -0.00   0.00     0.00  -0.00  -0.00
     3   6    -0.00  -0.00  -0.00    -0.00  -0.00  -0.00    -0.00   0.00  -0.00
     4   6    -0.00   0.00  -0.00     0.00  -0.00   0.00     0.00   0.00   0.00
     5   6    -0.00   0.00   0.00     0.00  -0.00  -0.00    -0.00  -0.00   0.00
     6   6    -0.00   0.00  -0.00    -0.00   0.00  -0.00    -0.00  -0.00   0.00
     7   6     0.00  -0.00  -0.00    -0.00   0.00   0.00     0.00   0.00   0.00
     8   6    -0.00  -0.00  -0.00     0.00   0.00   0.00     0.00  -0.00  -0.00
     9   6    -0.05  -0.02  -0.01     0.05   0.02   0.01     0.02  -0.02   0.05
    10   6    -0.05   0.02  -0.01    -0.05   0.02  -0.01    -0.02  -0.02  -0.05
    11   1    -0.00  -0.00  -0.00    -0.00  -0.00  -0.00     0.00  -0.00   0.00
    12   1     0.00   0.00  -0.00     0.00   0.00  -0.00    -0.00   0.00   0.01
    13   1     0.00   0.01  -0.00     0.00   0.02  -0.00    -0.00  -0.03   0.01
    14   1     0.00  -0.02  -0.00    -0.00   0.02   0.00     0.00  -0.03  -0.01
    15   1     0.00  -0.00  -0.00    -0.00   0.00   0.00     0.00   0.00  -0.01
    16   1    -0.00  -0.00   0.01    -0.00  -0.00   0.01     0.01   0.01  -0.02
    17   1    -0.00   0.00  -0.00     0.00  -0.00   0.00    -0.00  -0.00  -0.00
    18   1    -0.00   0.00   0.01     0.00  -0.00  -0.01    -0.01   0.01   0.02
    19   1     0.63   0.24   0.23    -0.60  -0.23  -0.22    -0.07  -0.03  -0.01
    20   1    -0.03   0.03  -0.08     0.03  -0.03   0.07    -0.14   0.30  -0.61
    21   1     0.60  -0.23   0.22     0.63  -0.24   0.23     0.07  -0.03   0.01
    22   1    -0.03  -0.03  -0.08    -0.03  -0.03  -0.08     0.14   0.30   0.62
                     52                     53                     54
                      A                      A                      A
 Frequencies --   3092.4424              3178.6574              3184.2456
 Red. masses --      1.0881                 1.0909                 1.0898
 Frc consts  --      6.1308                 6.4942                 6.5102
 IR Inten    --     35.8078                 2.3784                13.6565
  Atom  AN      X      Y      Z        X      Y      Z        X      Y      Z
     1   6    -0.00  -0.00  -0.00     0.00  -0.01  -0.00    -0.00   0.01   0.00
     2   6    -0.00  -0.00   0.00    -0.01  -0.00   0.01     0.01   0.00  -0.01
     3   6    -0.00   0.00  -0.00     0.01   0.06  -0.02    -0.01  -0.05   0.02
     4   6    -0.00  -0.00  -0.00     0.01  -0.06  -0.02     0.01  -0.05  -0.02
     5   6    -0.00   0.00   0.00    -0.01   0.00   0.01    -0.01   0.00   0.01
     6   6    -0.00  -0.00   0.00     0.00   0.00  -0.00    -0.00  -0.00   0.00
     7   6    -0.00   0.00  -0.00     0.00   0.01  -0.00     0.00   0.01  -0.00
     8   6    -0.00   0.00   0.00     0.00  -0.00  -0.00     0.00  -0.00  -0.00
     9   6    -0.02   0.02  -0.05    -0.00  -0.00   0.00    -0.00  -0.00   0.00
    10   6    -0.02  -0.02  -0.05    -0.00   0.00   0.00     0.00  -0.00  -0.00
    11   1    -0.00   0.00   0.00    -0.00   0.08   0.02     0.00  -0.11  -0.03
    12   1     0.00  -0.00  -0.00     0.07  -0.01  -0.14    -0.08   0.01   0.16
    13   1     0.00  -0.01   0.00    -0.11  -0.62   0.24     0.11   0.61  -0.24
    14   1     0.00   0.01   0.00    -0.11   0.62   0.24    -0.11   0.61   0.24
    15   1     0.00   0.00  -0.00     0.07   0.01  -0.14     0.08   0.01  -0.16
    16   1     0.01   0.01  -0.02    -0.03  -0.03   0.04     0.03   0.04  -0.05
    17   1    -0.00  -0.00   0.00    -0.00  -0.08   0.02    -0.00  -0.11   0.03
    18   1     0.01  -0.01  -0.02    -0.03   0.03   0.04    -0.03   0.04   0.05
    19   1     0.07   0.03   0.01     0.01   0.00   0.00     0.01   0.00   0.00
    20   1     0.14  -0.30   0.62    -0.00   0.00  -0.01    -0.00   0.01  -0.02
    21   1     0.07  -0.03   0.01     0.01  -0.00   0.00    -0.01   0.00  -0.00
    22   1     0.14   0.30   0.61    -0.00  -0.00  -0.01     0.00   0.01   0.02
                     55                     56                     57
                      A                      A                      A
 Frequencies --   3189.1806              3190.7223              3214.8998
 Red. masses --      1.0887                 1.0886                 1.0976
 Frc consts  --      6.5240                 6.5300                 6.6839
 IR Inten    --      6.5377                21.9302                20.9044
  Atom  AN      X      Y      Z        X      Y      Z        X      Y      Z
     1   6    -0.00   0.05   0.02     0.00  -0.05  -0.02    -0.00   0.02   0.01
     2   6     0.00  -0.00  -0.01    -0.00   0.00   0.01     0.01  -0.00  -0.02
     3   6     0.00   0.01  -0.00    -0.00  -0.01   0.01     0.00   0.00  -0.00
     4   6     0.00  -0.01  -0.00     0.00  -0.01  -0.01     0.00  -0.00  -0.00
     5   6     0.00   0.00  -0.01     0.00   0.00  -0.01     0.01   0.00  -0.02
     6   6    -0.01  -0.01   0.02     0.01   0.01  -0.02     0.03   0.03  -0.04
     7   6    -0.00  -0.05   0.02    -0.00  -0.05   0.02    -0.00  -0.02   0.01
     8   6    -0.01   0.01   0.02    -0.01   0.01   0.02     0.02  -0.03  -0.04
     9   6    -0.00  -0.00   0.00    -0.00  -0.00   0.00    -0.00   0.00  -0.00
    10   6    -0.00   0.00   0.00     0.00  -0.00  -0.00    -0.00  -0.00  -0.00
    11   1     0.02  -0.60  -0.17    -0.02   0.58   0.17     0.01  -0.24  -0.07
    12   1    -0.05   0.01   0.09     0.04  -0.01  -0.08    -0.12   0.02   0.23
    13   1    -0.02  -0.11   0.04     0.03   0.15  -0.06    -0.01  -0.04   0.01
    14   1    -0.02   0.11   0.04    -0.03   0.15   0.06    -0.01   0.03   0.01
    15   1    -0.05  -0.01   0.09    -0.04  -0.01   0.08    -0.10  -0.02   0.20
    16   1     0.14   0.16  -0.20    -0.15  -0.17   0.21    -0.31  -0.35   0.45
    17   1     0.02   0.60  -0.17     0.02   0.58  -0.17     0.01   0.21  -0.06
    18   1     0.14  -0.16  -0.20     0.14  -0.17  -0.21    -0.27   0.31   0.40
    19   1     0.00   0.00   0.00     0.00   0.00   0.00    -0.00  -0.00  -0.00
    20   1    -0.00   0.00  -0.01    -0.00   0.01  -0.02     0.00  -0.01   0.02
    21   1     0.00  -0.00   0.00    -0.00   0.00  -0.00    -0.00   0.00  -0.00
    22   1    -0.00  -0.00  -0.01     0.00   0.01   0.02     0.01   0.01   0.02
                     58                     59                     60
                      A                      A                      A
 Frequencies --   3214.9436              3228.1015              3228.3890
 Red. masses --      1.0979                 1.1005                 1.1007
[...]
 ,0.00032968,0.00077321,-0.00665872,0.05115569,-0.00146825,0.00550796,-
 0.00404663,-0.12861146,0.02436372,-0.27859137,-0.00695148,-0.00370992,
 -0.00613201,0.00015176,-0.00014623,-0.00025927,-0.00054231,0.00051074,
 -0.00021971,-0.00201606,-0.00044558,-0.00083777,-0.00000064,-0.0001574
 2,0.00069107,0.00104521,-0.00066233,-0.00086290,-0.00047459,-0.0003546
 9,-0.00030919,-0.00180269,0.00127910,0.00064102,0.00056650,-0.00046693
 ,-0.00023961,0.13939760,-0.02703137,0.29038693,0.00554203,0.00062226,0
 .00045880,0.00167753,-0.00357104,0.00259539,-0.04098331,-0.03487774,-0
 .03301260,-0.00734778,0.00831742,0.00992345,-0.00130994,-0.00417497,-0
 .00094888,-0.00253673,0.00203740,-0.00424041,-0.00090681,0.00108448,-0
 .00162552,-0.00056183,0.00117445,0.00137341,0.00147820,0.00058618,0.00
 079077,-0.00165779,-0.01764384,-0.00260846,0.00042644,-0.00013253,0.00
 007267,-0.00252318,0.00020676,0.00176854,0.04585918,0.00038273,-0.0037
 8280,0.00228961,-0.00474549,-0.01366800,-0.01370105,-0.04318953,-0.294
 43830,-0.09264268,-0.00035461,-0.00035908,0.00010611,-0.00003779,0.000
 19438,-0.00009674,0.00075723,-0.00020862,0.00084673,-0.00005270,0.0004
 5564,-0.00001365,-0.00020376,-0.00010261,0.00036104,-0.00002152,-0.000
 10732,-0.00021655,0.00194005,0.00214418,0.00209247,-0.00100686,-0.0005
 4134,-0.00046345,0.00011594,0.00067651,0.00043289,0.04727809,0.3085772
 4,-0.00346383,0.00289193,-0.00279861,0.00452573,0.02034896,0.01013065,
 -0.03312566,-0.10128209,-0.08091548,0.00425056,-0.00552271,-0.00582812
 ,0.00065434,0.00203421,0.00057932,-0.00313493,-0.00144089,-0.00265799,
 0.00025017,-0.00033938,0.00037899,0.00024213,0.00013058,-0.00062932,-0
 .00101252,-0.00019143,0.00008702,0.00384277,-0.01684127,-0.00353909,0.
 00052730,0.00067548,0.00063830,0.00163364,-0.00139393,-0.00059999,0.02
 658083,0.10106996,0.08314218,-0.00090689,-0.00108477,-0.00162558,-0.00
 130986,0.00417493,-0.00094933,-0.00734790,-0.00831650,0.00992445,-0.04
 098507,0.03487908,-0.03301808,0.00167757,0.00357139,0.00259494,-0.0005
 6191,-0.00117445,0.00137367,0.00554189,-0.00062203,0.00045871,-0.00253
 677,-0.00203772,-0.00424015,-0.00165811,0.01764359,-0.00261029,0.00147
 818,-0.00058612,0.00079086,0.00016670,-0.00004242,-0.00016490,0.000146
 26,-0.00000922,-0.00001343,0.00082285,-0.00021978,-0.00015585,0.045861
 73,0.00005271,0.00045566,0.00001362,0.00003783,0.00019424,0.00009676,0
 .00035494,-0.00035866,-0.00010648,0.04319070,-0.29441540,0.09266312,0.
 00474638,-0.01366861,0.01370342,0.00020380,-0.00010267,-0.00036109,-0.
 00038297,-0.00378334,-0.00228950,-0.00075760,-0.00020859,-0.00084703,-
 0.00193973,0.00214592,-0.00209306,0.00002147,-0.00010730,0.00021660,-0
 .00005997,0.00005042,0.00003047,0.00004181,0.00000365,-0.00005968,0.00
 021978,0.00068771,0.00001756,-0.04728026,0.30855324,0.00025021,0.00033
 943,0.00037903,0.00065430,-0.00203428,0.00057956,0.00425074,0.00552233
 ,-0.00582894,-0.03313220,0.10130264,-0.08093466,0.00452561,-0.02034648
 ,0.01013116,0.00024216,-0.00013061,-0.00062936,-0.00346383,-0.00289189
 ,-0.00279798,-0.00313483,0.00144050,-0.00265797,0.00384262,0.01684063,
 -0.00354063,-0.00101260,0.00019146,0.00008699,-0.00010106,-0.00002688,
 0.00005462,-0.00013854,0.00001675,0.00009822,-0.00015588,-0.00001770,-
 0.00035067,0.02658763,-0.10109160,0.08316247,-0.00073406,-0.00074092,-
 0.00206374,0.00117333,0.00196820,0.00060269,-0.00100875,-0.00085215,0.
 00170341,0.00275784,0.00117058,-0.00095033,-0.09315421,-0.00561406,-0.
 12987818,-0.00256042,-0.00070395,0.00320155,-0.00425347,-0.00414667,-0
 .00904641,0.00103863,0.00265082,-0.00106682,0.00412476,0.00004658,-0.0
 0320347,0.00010972,-0.00035303,0.00007397,-0.00002594,0.00000568,-0.00
 004877,-0.00019412,0.00006295,0.00002882,0.00014627,-0.00004182,-0.000
 13854,-0.00252314,-0.00011583,0.00163365,0.09576114,0.00012926,-0.0000
 7141,-0.00022540,0.00039775,-0.00018991,0.00032291,-0.00020137,-0.0001
 7523,-0.00023428,-0.01336533,0.00511079,-0.02072682,-0.00431557,-0.058
 40249,-0.02546978,-0.00043858,-0.00003968,0.00045142,0.00765825,0.0083
 8036,0.01952383,0.00242082,-0.00396093,0.00272997,0.00160467,-0.003815
 60,-0.00343763,0.00032339,0.00004983,-0.00035111,0.00003087,0.00000545
 ,0.00000963,-0.00006295,-0.00003265,0.00000602,0.00000924,0.00000365,-
 0.00001675,-0.00020664,0.00067661,0.00139383,0.00667347,0.05116130,-0.
 00000063,0.00015751,0.00069119,-0.00054234,-0.00051084,-0.00021975,0.0
 0015187,0.00014628,-0.00025934,-0.00695023,0.00370875,-0.00613009,-0.1
 2861171,-0.02438814,-0.27858520,0.00104541,0.00066234,-0.00086319,-0.0
 0146864,-0.00550920,-0.00404775,-0.00201627,0.00044577,-0.00083814,-0.
 00180284,-0.00127863,0.00064156,-0.00047468,0.00035465,-0.00030919,0.0
 0001995,-0.00002297,0.00000990,0.00002883,-0.00000601,0.00008172,-0.00
 001344,0.00005969,0.00009823,0.00176857,-0.00043299,-0.00060011,0.1393
 9707,0.02705775,0.29038004,-0.00074557,-0.00737023,-0.00461767,0.00342
 452,0.00025572,-0.00497668,-0.00098406,0.00006716,-0.00087386,0.000178
 75,0.00007686,0.00017511,-0.00006649,0.00009912,-0.00035497,-0.1029831
 0,-0.07745866,-0.11130944,0.00038379,-0.00027601,0.00023075,-0.0000135
 2,-0.00001694,-0.00031310,0.00016519,0.00031456,0.00021971,0.00154561,
 0.00296461,0.00392644,-0.00317331,0.00067188,0.00219064,0.00039756,-0.
 00100085,-0.00040736,0.00111219,-0.00015667,-0.00104422,-0.00001998,-0
 .00004327,-0.00004484,0.00000401,-0.00014143,0.00017740,0.10092328,0.0
 0671942,0.01032067,0.00907743,0.00050296,-0.00056168,0.00264807,0.0011
 6271,-0.00576882,0.00051289,0.00037384,-0.00012996,-0.00022673,0.00008
 575,0.00006618,-0.00012610,-0.07695763,-0.14010115,-0.10803821,-0.0000
 6173,0.00011588,0.00004730,-0.00010706,-0.00003186,0.00011747,-0.00000
 889,0.00009761,-0.00003828,-0.01378798,-0.00464414,-0.01794001,-0.0001
 0391,0.00027589,-0.00111450,0.00017571,0.00080090,0.00026388,-0.001318
 71,0.00014807,-0.00105054,0.00004501,0.00004584,-0.00006261,-0.0000782
 6,-0.00001848,0.00011143,0.08279741,0.13883768,-0.01013611,-0.01749005
 ,-0.00852463,-0.00391241,0.00257771,-0.00181320,0.00061857,0.00196870,
 0.00025886,0.00007922,-0.00002434,-0.00013745,-0.00005942,0.00006928,0
 .00038665,-0.10802326,-0.10418316,-0.18509918,-0.00016785,0.00004127,-
 0.00014641,0.00003096,0.00010327,0.00018209,-0.00007153,-0.00017306,-0
 .00009734,0.00307525,0.00305533,0.00255937,0.00241483,0.00016842,-0.00
 060964,-0.00075916,-0.00077910,-0.00017797,-0.00043768,0.00008072,0.00
 101497,-0.00001095,0.00002819,0.00004985,-0.00006209,0.00002279,0.0000
 3543,0.11758070,0.11541229,0.19168824,0.00007867,-0.00000494,0.0002100
 3,0.00003476,-0.00018168,0.00015424,0.00018585,-0.00053273,-0.00045873
 ,0.00153547,0.00274725,-0.00344621,0.00240828,0.01166998,0.00591057,0.
 00032189,-0.00004500,-0.00032945,-0.04259204,-0.00894124,-0.01131831,0
 .00334870,-0.01309926,-0.00233887,0.00593562,0.00013155,-0.00682946,0.
 00004019,0.00002054,0.00001697,-0.00012907,-0.00005838,0.00011198,-0.0
 0002594,-0.00003087,0.00001995,0.00016669,0.00005996,-0.00010106,0.000
 42642,0.00100694,0.00052722,-0.00101980,-0.00073157,0.00056651,-0.0000
 8438,0.00000978,0.00001213,0.03252163,-0.00020132,-0.00014694,-0.00013
 677,-0.00003324,0.00017639,-0.00032653,-0.00026306,0.00003556,0.000298
 08,0.00117617,-0.00285463,0.00147568,-0.00411207,-0.01072533,-0.009418
 13,-0.00012141,0.00020302,0.00038257,-0.00704360,-0.31748760,-0.076335
 79,0.00171455,-0.00377959,0.00168283,0.00114781,0.00018477,-0.00142358
 ,0.00005176,-0.00006964,-0.00000754,0.00005839,0.00016812,-0.00009122,
 -0.00000569,0.00000545,0.00002297,0.00004241,0.00005042,0.00002687,0.0
 0013255,-0.00054134,-0.00067534,0.00003980,0.00032962,0.00046689,0.000
 11037,0.00000606,-0.00001282,0.00830096,0.33455060,0.00006417,-0.00009
 860,0.00011954,-0.00000834,-0.00015983,0.00005548,0.00031543,0.0003648
 8,-0.00017635,-0.00347902,0.00296642,-0.00076280,0.00211964,0.01407005
 ,0.00872677,0.00002925,0.00010212,0.00012089,-0.01156318,-0.07436006,-
 0.07589822,0.00050614,-0.02487034,0.00174930,-0.00512028,-0.00154378,-
 0.00147223,-0.00005235,0.00001537,-0.00007113,0.00011197,0.00009120,-0
 .00005647,-0.00004876,-0.00000963,0.00000990,-0.00016490,-0.00003047,0
 .00005462,0.00007266,0.00046355,0.00063830,0.00093377,-0.00077323,-0.0
 0023958,-0.00001903,-0.00001723,-0.00000339,0.01423031,0.08430017,0.06
 802487,0.00038376,0.00027601,0.00023072,-0.00006646,-0.00009920,-0.000
 35486,0.00017879,-0.00007683,0.00017510,-0.00098391,-0.00006712,-0.000
 87372,0.00342447,-0.00025637,-0.00497679,-0.00001351,0.00001692,-0.000
 31306,-0.00074591,0.00737002,-0.00461872,-0.10299025,0.07745063,-0.111
 32112,0.00154538,-0.00296404,0.00392617,0.00016522,-0.00031456,0.00021
 971,-0.00008437,-0.00011037,-0.00001902,0.00000400,0.00014143,0.000177
 37,-0.00001998,0.00004325,-0.00004484,0.00111210,0.00015657,-0.0010442
 4,0.00039749,0.00100085,-0.00040747,0.00001263,0.00000940,0.00000097,-
 0.00317326,-0.00067176,0.00219076,0.10093091,0.00006173,0.00011587,-0.
 00004731,-0.00008574,0.00006617,0.00012613,-0.00037380,-0.00012992,0.0
 0022671,-0.00116255,-0.00576906,-0.00051230,-0.00050333,-0.00056227,-0
 .00264829,0.00010708,-0.00003187,-0.00011746,-0.00672086,0.01032154,-0
 .00907939,0.07695020,-0.14007707,0.10803077,0.01378859,-0.00464242,0.0
 1794068,0.00000888,0.00009762,0.00003827,-0.00000978,0.00000606,0.0000
 1723,0.00007824,-0.00001849,-0.00011140,-0.00004501,0.00004584,0.00006
 261,0.00131872,0.00014819,0.00105057,-0.00017579,0.00080097,-0.0002639
 9,-0.00000940,0.00001405,0.00000139,0.00010408,0.00027597,0.00111446,-
 0.08278903,0.13881147,-0.00016785,-0.00004130,-0.00014639,-0.00005943,
 -0.00006921,0.00038660,0.00007923,0.00002433,-0.00013748,0.00061870,-0
 .00196813,0.00025904,-0.00391241,-0.00257779,-0.00181246,0.00003095,-0
 .00010325,0.00018209,-0.01013588,0.01748776,-0.00852514,-0.10803529,0.
 10417576,-0.18511769,0.00307404,-0.00305456,0.00255791,-0.00007155,0.0
 0017307,-0.00009735,0.00001213,0.00001282,-0.00000339,-0.00006209,-0.0
 0002279,0.00003543,-0.00001094,-0.00002819,0.00004984,-0.00043780,-0.0
 0008063,0.00101490,-0.00075919,0.00077893,-0.00017798,0.00000097,-0.00
 000139,-0.00000096,0.00241488,-0.00016844,-0.00060983,0.11759368,-0.11
 540382,0.19170819,-0.00058325,-0.00001992,-0.00053332,-0.00031153,0.00
 181478,-0.00096065,-0.00228119,-0.00145884,0.00062299,-0.01998749,-0.0
 0847919,0.00397942,0.00001386,0.00213437,-0.00046718,-0.00056163,-0.00
 022095,0.00008063,0.00031864,0.00066317,0.00109922,0.00258613,-0.00071
 607,-0.00082327,-0.23006258,-0.07294910,0.07187149,-0.00021363,-0.0004
 4280,0.00032849,-0.00001738,-0.00009519,-0.00001012,0.00021237,-0.0000
 2236,-0.00008643,0.00034688,-0.00001011,-0.00020392,0.00070427,0.00055
 760,-0.00027700,0.00035348,-0.00005588,-0.00047225,0.00001675,-0.00002
 660,-0.00005441,-0.00020096,-0.00016368,0.00003171,-0.00018388,-0.0006
 1069,-0.00013538,0.25597575,-0.00031410,0.00009004,-0.00037584,-0.0001
 9357,-0.00000754,0.00017435,0.00081767,0.00019913,0.00073474,0.0074875
 9,0.00267514,-0.00135540,-0.00010760,-0.00093547,0.00167733,-0.0000477
 2,-0.00029429,-0.00000463,0.00144863,-0.00266766,0.00094549,-0.0281511
 8,-0.01628463,0.00589977,-0.07750629,-0.06495703,0.02628416,0.00034841
 ,0.00000891,-0.00010506,0.00004857,0.00001302,-0.00001438,0.00009761,-
 0.00003725,0.00008226,-0.00014111,0.00014689,0.00016731,-0.00030267,0.
 00007086,-0.00022058,-0.00018009,-0.00001862,-0.00001474,-0.00008207,0
 .00002128,0.00004862,0.00167427,0.00008650,-0.00131699,0.00106904,-0.0
 0000114,-0.00006659,0.08219568,0.07674097,-0.00054382,-0.00061067,-0.0
 0112063,0.00095723,0.00136906,-0.00018788,-0.00070797,-0.00035903,0.00
 037536,-0.01776716,-0.00793956,0.00338417,0.00062226,-0.00247746,0.000
 31116,-0.00067105,-0.00026649,0.00121718,-0.00337600,0.00174799,-0.003
 02281,0.00252131,0.00381806,0.00027686,0.06953168,0.02317709,-0.065183
 82,0.00027930,-0.00016994,-0.00021997,0.00003415,0.00000859,-0.0000407
 0,-0.00024936,0.00004444,0.00039969,-0.00003945,0.00015539,0.00009320,
 0.00079539,0.00041912,0.00067107,0.00075028,0.00009199,-0.00064821,-0.
 00009324,0.00000806,0.00007198,0.00031894,-0.00002327,-0.00024997,-0.0
 0023890,0.00037824,0.00023494,-0.07688221,-0.02861116,0.07311323,0.000
 09605,-0.00009680,0.00022379,-0.00089834,-0.00051236,-0.00024334,-0.00
 088048,-0.00078285,-0.00185032,0.00283843,-0.01202481,-0.01667840,-0.0
 0320546,0.00245107,-0.00396342,0.00019996,0.00024931,-0.00005234,0.001
 80142,-0.00009622,0.00084757,-0.00249552,-0.00255728,0.00083323,-0.051
 08534,0.02731036,0.04599763,-0.00033163,0.00019969,0.00023785,0.000008
 24,0.00003707,0.00003971,-0.00026123,-0.00038027,0.00007555,-0.0002691
 3,0.00032113,-0.00018971,-0.00016607,0.00030017,0.00038453,-0.00034386
 ,-0.00113189,-0.00038420,0.00012525,0.00000591,-0.00004164,0.00023040,
 -0.00021706,-0.00017953,-0.00003524,0.00004778,0.00005931,-0.00601061,
 0.01165424,0.02483507,0.06066838,-0.00025166,-0.00024373,-0.00042655,-
 0.00013919,0.00004356,-0.00032900,0.00019423,0.00057683,0.00069938,-0.
 00349720,0.00347255,0.00676289,0.00254551,-0.00044420,0.00090305,-0.00
 006238,-0.00018733,0.00027979,0.00060252,-0.00608911,0.00022362,0.0045
 5136,-0.00932093,-0.02872781,0.02504099,-0.09446437,-0.10023979,0.0002
 0729,-0.00007224,-0.00012942,0.00001990,0.00001559,-0.00001037,-0.0003
 1242,-0.00020463,0.00045240,-0.00001243,0.00006277,0.00016096,-0.00003
 617,-0.00005602,-0.00027193,0.00016971,0.00044837,-0.00020898,-0.00006
 237,0.00000685,0.00006962,-0.00203117,-0.00049601,-0.00033280,-0.00032
 927,0.00050035,0.00105164,-0.00194099,0.00498733,0.00937862,-0.0247009
 9,0.10137660,0.00005507,-0.00027866,-0.00033267,0.00080037,0.00038022,
 0.00091507,0.00183134,0.00007521,-0.00080578,0.00549502,-0.00873897,-0
 .01378770,-0.00200017,-0.00049714,-0.00283263,0.00045537,-0.00007973,0
 .00065783,0.00011250,0.00192302,-0.00175517,-0.00114339,0.00181801,0.0
 0551558,0.04306934,-0.10082564,-0.25190593,0.00018094,0.00047771,-0.00
 027211,0.00005393,0.00003359,-0.00003226,-0.00003673,0.00012123,0.0004
 3971,-0.00056401,0.00045043,0.00052462,-0.00053708,0.00031548,-0.00014
 377,-0.00082160,-0.00098846,0.00014107,-0.00017270,0.00004796,0.000119
 36,0.00024028,0.00000556,0.00011325,-0.00003577,-0.00074706,0.00000834
 ,0.00308200,-0.00404107,-0.00937812,-0.04998581,0.11060820,0.27276631,
 0.00031878,-0.00066294,0.00109941,0.00001388,-0.00213447,-0.00046693,-
 0.01998738,0.00847882,0.00397838,-0.00228125,0.00145891,0.00062287,-0.
 00031156,-0.00181488,-0.00096050,0.00258518,0.00071653,-0.00082311,-0.
 00058325,0.00001983,-0.00053327,-0.00056159,0.00022093,0.00008056,-0.0
 0021365,0.00044283,0.00032848,-0.23006875,0.07295149,0.07186429,-0.000
 20092,0.00016367,0.00003165,0.00035349,0.00005583,-0.00047226,0.000704
 24,-0.00055761,-0.00027697,0.00034690,0.00001010,-0.00020393,0.0002123
 8,0.00002236,-0.00008644,-0.00018386,0.00061067,-0.00013545,-0.0000173
 8,0.00009519,-0.00001013,0.00001676,0.00002660,-0.00005442,-0.00008345
 ,0.00012629,-0.00005672,-0.00003055,0.00002693,-0.00013308,0.25598250,
 -0.00144877,-0.00266787,-0.00094547,0.00010768,-0.00093545,-0.00167720
 ,-0.00748998,0.00267601,0.00135548,-0.00081779,0.00019906,-0.00073476,
 0.00019368,-0.00000773,-0.00017436,0.02815187,-0.01628472,-0.00589796,
 0.00031408,0.00009015,0.00037572,0.00004767,-0.00029429,0.00000476,-0.
 00034841,0.00000894,0.00010505,0.07750845,-0.06495709,-0.02628135,-0.0
 0167425,0.00008660,0.00131688,0.00018017,-0.00001862,0.00001468,0.0003
 0277,0.00007081,0.00022062,0.00014111,0.00014687,-0.00016733,-0.000097
 65,-0.00003727,-0.00008222,-0.00106906,-0.00000118,0.00006659,-0.00004
 857,0.00001302,0.00001438,0.00008205,0.00002127,-0.00004861,-0.0001263
 0,0.00010613,-0.00009817,-0.00005839,0.00005744,-0.00001429,-0.0821980
 8,0.07674140,-0.00337581,-0.00174811,-0.00302258,0.00062209,0.00247766
 ,0.00031110,-0.01776679,0.00793913,0.00338316,-0.00070792,0.00035908,0
 .00037538,0.00095721,-0.00136910,-0.00018773,0.00251884,-0.00381651,0.
 00027775,-0.00054383,0.00061054,-0.00112069,-0.00067099,0.00026658,0.0
 0121710,0.00027930,0.00016993,-0.00021999,0.06952396,-0.02317439,-0.06
 517798,0.00031910,0.00002324,-0.00025009,0.00075030,-0.00009205,-0.000
 64821,0.00079537,-0.00041905,0.00067107,-0.00003946,-0.00015541,0.0000
 9324,-0.00024936,-0.00004441,0.00039971,-0.00023879,-0.00037821,0.0002
 3496,0.00003415,-0.00000860,-0.00004070,-0.00009325,-0.00000806,0.0000
 7200,-0.00005672,0.00009816,-0.00007029,-0.00001970,0.00004087,-0.0000
 2646,-0.07687414,0.02860786,0.07310664,0.00180144,0.00009653,0.0008475
 9,-0.00320526,-0.00245154,-0.00396316,0.00283807,0.01202320,-0.0166791
 5,-0.00088054,0.00078268,-0.00185042,-0.00089834,0.00051236,-0.0002434
 1,-0.00249553,0.00255756,0.00083212,0.00009604,0.00009680,0.00022378,0
 .00019996,-0.00024930,-0.00005230,-0.00033164,-0.00019968,0.00023787,-
 0.05108483,-0.02730549,0.04599872,0.00023036,0.00021706,-0.00017956,-0
 .00034385,0.00113182,-0.00038433,-0.00016605,-0.00030013,0.00038459,-0
 .00026918,-0.00032116,-0.00018972,-0.00026129,0.00038030,0.00007554,-0
 .00003525,-0.00004780,0.00005935,0.00000824,-0.00003707,0.00003971,0.0
 0012525,-0.00000591,-0.00004164,-0.00003055,0.00005839,-0.00001970,0.0
 0004533,0.00001781,0.00005417,-0.00601053,-0.01165227,0.02483642,0.060
 66815,-0.00060230,-0.00608939,-0.00022316,-0.00254576,-0.00044433,-0.0
 0090344,0.00349780,0.00347318,-0.00676497,-0.00019409,0.00057672,-0.00
 069955,0.00013922,0.00004353,0.00032913,-0.00455145,-0.00931833,0.0287
 2909,0.00025171,-0.00024365,0.00042652,0.00006242,-0.00018736,-0.00027
 972,-0.00020728,-0.00007227,0.00012941,-0.02503637,-0.09444724,0.10022
 561,0.00203117,-0.00049592,0.00033294,-0.00016982,0.00044851,0.0002089
 4,0.00003613,-0.00005602,0.00027194,0.00001236,0.00006273,-0.00016093,
 0.00031243,-0.00020470,-0.00045234,0.00032927,0.00050033,-0.00105167,-
 0.00001989,0.00001558,0.00001037,0.00006236,0.00000685,-0.00006961,-0.
 00002695,0.00005744,-0.00004088,-0.00001781,0.00003031,-0.00004560,0.0
 0194101,0.00498653,-0.00937916,0.02469584,0.10135750,0.00011263,-0.001
 92258,-0.00175495,-0.00200001,0.00049684,-0.00283265,0.00549473,0.0087
 3766,-0.01378793,0.00183132,-0.00007524,-0.00080568,0.00080036,-0.0003
 8019,0.00091508,-0.00114295,-0.00181665,0.00551302,0.00005506,0.000278
 66,-0.00033277,0.00045536,0.00007982,0.00065782,0.00018097,-0.00047774
 ,-0.00027208,0.04307006,0.10081145,-0.25192301,0.00024007,-0.00000550,
 0.00011324,-0.00082160,0.00098843,0.00014094,-0.00053706,-0.00031551,-
 0.00014374,-0.00056399,-0.00045041,0.00052469,-0.00003673,-0.00012119,
 0.00043968,-0.00003582,0.00074701,0.00000837,0.00005393,-0.00003360,-0
 .00003225,-0.00017270,-0.00004796,0.00011938,-0.00013308,0.00001428,-0
 .00002646,0.00005417,0.00004561,0.00007146,0.00308173,0.00403973,-0.00
 937739,-0.04998646,-0.11059293,0.27278524\\0.00044842,0.00083397,0.001
 21773,0.00271143,-0.00124883,-0.00128352,0.00996850,-0.00053203,-0.007
 75708,-0.00996798,-0.00053164,0.00775759,-0.00271186,-0.00124936,0.001
 28389,0.00218453,0.00044680,-0.00091014,-0.00044839,0.00083409,-0.0012
 1733,-0.00218370,0.00044650,0.00090993,-0.00125395,0.00036102,0.001027
 50,0.00125348,0.00036071,-0.00102686,-0.00017511,0.00008265,0.00018613
 ,-0.00005824,0.00003698,0.00005930,0.00008865,-0.00005636,-0.00011620,
 -0.00008883,-0.00005575,0.00011595,0.00005810,0.00003701,-0.00005955,0
 .00013056,-0.00000565,-0.00000575,0.00017506,0.00008246,-0.00018627,-0
 .00013088,-0.00000538,0.00000526,-0.00029327,0.00005067,-0.00043976,0.
 00030644,0.00003063,0.00018251,0.00029345,0.00005066,0.00043957,-0.000
 30643,0.00003084,-0.00018291\\\@


 Life may have no meaning.  Or even worse, it may have a
 meaning of which I disapprove.
                                 -- Ashleigh Brilliant
 Job cpu time:       0 days  1 hours  4 minutes 30.8 seconds.
 Elapsed time:       0 days  0 hours  0 minutes 41.4 seconds.
 File lengths (MBytes):  RWF=    182 Int=      0 D2E=      0 Chk=     10 Scr=      1
 Normal termination of Gaussian 16 at Mon Jul 28 00:11:47 2025.
