 Entering Gaussian System, Link 0=g16
 Initial command:
 /home/hongchang/data/software/Gaussian/g16/l1.exe "/home/hongchang/data/software/Gaussian/g16/scratch/Gau-1380046.inp" -scrdir="/home/hongchang/data/software/Gaussian/g16/scratch/"
 Entering Link 1 = /home/hongchang/data/software/Gaussian/g16/l1.exe PID=   1380047.
  
 Copyright (c) 1988,1990,1992,1993,1995,1998,2003,2009,2016,
            Gaussian, Inc.  All Rights Reserved.
  
 This is part of the Gaussian(R) 16 program.  It is based on
 the Gaussian(R) 09 system (copyright 2009, Gaussian, Inc.),
 the Gaussian(R) 03 system (copyright 2003, Gaussian, Inc.),
 the Gaussian(R) 98 system (copyright 1998, Gaussian, Inc.),
 the Gaussian(R) 94 system (copyright 1995, Gaussian, Inc.),
 the Gaussian 92(TM) system (copyright 1992, Gaussian, Inc.),
 the Gaussian 90(TM) system (copyright 1990, Gaussian, Inc.),
 the Gaussian 88(TM) system (copyright 1988, Gaussian, Inc.),
 the Gaussian 86(TM) system (copyright 1986, Carnegie Mellon
 University), and the Gaussian 82(TM) system (copyright 1983,
 Carnegie Mellon University). Gaussian is a federally registered
 trademark of Gaussian, Inc.
  
 This software contains proprietary and confidential information,
 including trade secrets, belonging to Gaussian, Inc.
  
 This software is provided under written license and may be
 used, copied, transmitted, or stored only in accord with that
 written license.
  
 The following legend is applicable only to US Government
 contracts under FAR:
  
                    RESTRICTED RIGHTS LEGEND
  
 Use, reproduction and disclosure by the US Government is
 subject to restrictions as set forth in subparagraphs (a)
 and (c) of the Commercial Computer Software - Restricted
 Rights clause in FAR 52.227-19.
  
 Gaussian, Inc.
 340 Quinnipiac St., Bldg. 40, Wallingford CT 06492
  
  
 ---------------------------------------------------------------
 Warning -- This program may not be used in any manner that
 competes with the business of Gaussian, Inc. or will provide
 assistance to any competitor of Gaussian, Inc.  The licensee
 of this program is prohibited from giving any competitor of
 Gaussian, Inc. access to this program.  By using this program,
 the user acknowledges that Gaussian, Inc. is engaged in the
 business of creating and licensing software in the field of
 computational chemistry and represents and warrants to the
 licensee that it is not a competitor of Gaussian, Inc. and that
 it will not use this program in any manner prohibited above.
 ---------------------------------------------------------------
  

 Cite this work as:
 Gaussian 16, Revision A.03,
 M. J. Frisch, G. W. Trucks, H. B. Schlegel, G. E. Scuseria, 
 M. A. Robb, J. R. Cheeseman, G. Scalmani, V. Barone, 
 G. A. Petersson, H. Nakatsuji, X. Li, M. Caricato, A. V. Marenich, 
 J. Bloino, B. G. Janesko, R. Gomperts, B. Mennucci, H. P. Hratchian, 
 J. V. Ortiz, A. F. Izmaylov, J. L. Sonnenberg, D. Williams-Young, 
 F. Ding, F. Lipparini, F. Egidi, J. Goings, B. Peng, A. Petrone, 
 T. Henderson, D. Ranasinghe, V. G. Zakrzewski, J. Gao, N. Rega, 
 G. Zheng, W. Liang, M. Hada, M. Ehara, K. Toyota, R. Fukuda, 
 J. Hasegawa, M. Ishida, T. Nakajima, Y. Honda, O. Kitao, H. Nakai, 
 T. Vreven, K. Throssell, J. A. Montgomery, Jr., J. E. Peralta, 
 F. Ogliaro, M. J. Bearpark, J. J. Heyd, E. N. Brothers, K. N. Kudin, 
 V. N. Staroverov, T. A. Keith, R. Kobayashi, J. Normand, 
 K. Raghavachari, A. P. Rendell, J. C. Burant, S. S. Iyengar, 
 J. Tomasi, M. Cossi, J. M. Millam, M. Klene, C. Adamo, R. Cammi, 
 J. W. Ochterski, R. L. Martin, K. Morokuma, O. Farkas, 
 J. B. Foresman, and D. J. Fox, Gaussian, Inc., Wallingford CT, 2016.
 
 ******************************************
 Gaussian 16:  ES64L-G16RevA.03 25-Dec-2016
                28-Jul-2025 
 ******************************************
 %nprocshared=96
 Will use up to   96 processors via shared memory.
 %mem=600GB
 %chk=01_02_path2_1.chk
 -----------------------------------------------------------
 # freq b3lyp/6-311g(d,p) em=gd3bj scrf(solvent=Cis-Decalin)
 -----------------------------------------------------------
 1/10=4,30=1,38=1/1,3;
 2/12=2,17=6,18=5,40=1/2;
 3/5=4,6=6,7=101,11=2,25=1,30=1,70=2201,71=2,72=99,74=-5,124=41,140=1/1,2,3;
 4//1;
 5/5=2,38=5,53=99,98=1/2;
 8/6=4,10=90,11=11/1;
 11/6=1,8=1,9=11,15=111,16=1/1,2,10;
 10/6=1/2;
 6/7=2,8=2,9=2,10=2,28=1/1;
 7/8=1,10=1,25=1/1,2,3,16;
 1/10=4,30=1/3;
 99//99;
 -------------
 01_02_path2_1
 -------------
 Symbolic Z-matrix:
 Charge =  0 Multiplicity = 1
 C                    -1.35995  -1.15978   0.66522 
 C                    -0.7189   -0.1042    1.3602 
 C                    -0.77997   1.06765   0.55286 
 C                     0.77994   1.0676   -0.55296 
 C                     0.71888  -0.10433  -1.36018 
 C                    -1.91418  -0.69008  -0.49485 
 C                     1.35997  -1.15983  -0.6651 
 C                     1.91422  -0.69      0.4949 
 C                     1.87886   0.81283   0.47397 
 C                    -1.87887   0.81276  -0.47405 
 H                    -1.34274  -2.19704   0.9749 
 H                    -0.25268  -0.18168   2.33051 
 H                    -0.69095   2.04989   1.00587 
 H                     0.69091   2.04979  -1.00607 
 H                     0.25267  -0.18192  -2.33048 
 H                    -2.44289  -1.27658  -1.2334 
 H                     1.34278  -2.19712  -0.97468 
 H                     2.44296  -1.27642   1.2335 
 H                     2.83084   1.19631   0.07677 
 H                     1.71503   1.28672   1.44291 
 H                    -2.83087   1.19624  -0.07689 
 H                    -1.71505   1.28656  -1.44303 
 

 GradGradGradGradGradGradGradGradGradGradGradGradGradGradGradGradGradGrad
 Berny optimization.
 Initialization pass.
 Trust Radius=3.00D-01 FncErr=1.00D-07 GrdErr=1.00D-07 EigMax=2.50D+02 EigMin=1.00D-04
 Number of steps in this run=      2 maximum allowed number of steps=      2.
 GradGradGradGradGradGradGradGradGradGradGradGradGradGradGradGradGradGrad

                          Input orientation:                          
 ---------------------------------------------------------------------
 Center     Atomic      Atomic             Coordinates (Angstroms)
 Number     Number       Type             X           Y           Z
 ---------------------------------------------------------------------
      1          6           0       -1.359950   -1.159779    0.665222
      2          6           0       -0.718904   -0.104196    1.360198
      3          6           0       -0.779968    1.067654    0.552862
      4          6           0        0.779942    1.067603   -0.552962
      5          6           0        0.718882   -0.104331   -1.360175
      6          6           0       -1.914179   -0.690081   -0.494845
      7          6           0        1.359969   -1.159831   -0.665104
      8          6           0        1.914218   -0.690003    0.494898
      9          6           0        1.878863    0.812832    0.473967
     10          6           0       -1.878873    0.812757   -0.474052
     11          1           0       -1.342742   -2.197040    0.974903
     12          1           0       -0.252681   -0.181682    2.330510
     13          1           0       -0.690951    2.049886    1.005869
     14          1           0        0.690905    2.049787   -1.006068
     15          1           0        0.252666   -0.181919   -2.330483
     16          1           0       -2.442894   -1.276579   -1.233397
     17          1           0        1.342778   -2.197124   -0.974681
     18          1           0        2.442964   -1.276416    1.233496
     19          1           0        2.830844    1.196307    0.076765
     20          1           0        1.715031    1.286720    1.442905
     21          1           0       -2.830868    1.196238   -0.076888
     22          1           0       -1.715050    1.286563   -1.443032
 ---------------------------------------------------------------------
                    Distance matrix (angstroms):
                    1          2          3          4          5
     1  C    0.000000
     2  C    1.417105   0.000000
     3  C    2.304444   1.424343   0.000000
     4  C    3.320292   2.698117   1.912110   0.000000
     5  C    3.088324   3.076956   2.698112   1.424342   0.000000
     6  C    1.368774   2.283228   2.339606   3.217315   2.832827
     7  C    3.027825   3.088353   3.320310   2.304446   1.417108
     8  C    3.312080   2.832886   3.217352   2.339609   2.283229
     9  C    3.797062   2.893914   2.672179   1.525490   2.356018
    10  C    2.336263   2.356014   1.525489   2.672166   2.893889
    11  H    1.082640   2.217571   3.339620   4.183067   3.752641
    12  H    2.226186   1.079293   2.235823   3.307784   3.817208
    13  H    3.296293   2.183209   1.085320   2.357617   3.496633
    14  H    4.159391   3.496630   2.357608   1.085319   2.183208
    15  H    3.539914   3.817213   3.307785   2.235823   1.079294
    16  H    2.188873   3.327666   3.384002   4.042877   3.374473
    17  H    3.327177   3.752671   4.183087   3.339622   2.217574
    18  H    3.846907   3.374546   4.042922   3.384006   3.327668
    19  H    4.843571   3.992395   3.644336   2.149260   2.866503
    20  H    4.005703   2.804555   2.658042   2.214924   3.283990
    21  H    2.874916   2.866485   2.149258   3.644330   3.992372
    22  H    3.248911   3.283994   2.214925   2.658036   2.804546
                    6          7          8          9         10
     6  C    0.000000
     7  C    3.312053   0.000000
     8  C    3.954265   1.368771   0.000000
     9  C    4.193389   2.336265   1.503397   0.000000
    10  C    1.503396   3.797065   4.193410   3.875477   0.000000
    11  H    2.181198   3.327172   3.620684   4.437229   3.383162
    12  H    3.316877   3.539932   2.885015   2.996546   3.391014
    13  H    3.354974   4.159412   3.815100   2.901235   2.265351
    14  H    3.815061   3.296293   3.354973   2.265349   2.901214
    15  H    2.884963   2.226189   3.316878   3.391015   2.996527
    16  H    1.081193   3.846863   4.723928   5.094930   2.293480
    17  H    3.620662   1.082640   2.181197   3.383165   4.437234
    18  H    4.723944   2.188870   1.081194   2.293480   5.094962
    19  H    5.138136   2.874931   2.138505   1.100495   4.757304
    20  H    4.564404   3.248905   2.201324   1.090987   4.100672
    21  H    2.138506   4.843570   5.138160   4.757311   1.100496
    22  H    2.201325   4.005716   4.564425   4.100673   1.090987
                   11         12         13         14         15
    11  H    0.000000
    12  H    2.662249   0.000000
    13  H    4.296763   2.631853   0.000000
    14  H    5.108376   4.123416   2.440782   0.000000
    15  H    4.187077   4.688308   4.123422   2.631851   0.000000
    16  H    2.633282   4.324033   4.375955   4.575706   3.109328
    17  H    3.318568   4.187097   5.108398   4.296764   2.662254
    18  H    3.904611   3.109403   4.575754   4.375955   4.324035
    19  H    5.453465   4.060338   3.740972   2.545642   3.786998
    20  H    4.658925   2.610735   2.561674   2.761987   4.305098
    21  H    3.851638   3.786988   2.545648   3.740963   4.060319
    22  H    4.256820   4.305100   2.761984   2.561653   2.610731
                   16         17         18         19         20
    16  H    0.000000
    17  H    3.904568   0.000000
    18  H    5.473314   2.633279   0.000000
    19  H    5.970260   3.851656   2.757324   0.000000
    20  H    5.569689   4.256814   2.672715   1.766225   0.000000
    21  H    2.757329   5.453463   5.970295   5.663797   4.794075
    22  H    2.672714   4.658942   5.569717   4.794067   4.482643
                   21         22
    21  H    0.000000
    22  H    1.766227   0.000000
 Stoichiometry    C10H12
 Framework group  C1[X(C10H12)]
 Deg. of freedom    60
 Full point group                 C1      NOp   1
 Largest Abelian subgroup         C1      NOp   1
 Largest concise Abelian subgroup C1      NOp   1
                         Standard orientation:                         
 ---------------------------------------------------------------------
 Center     Atomic      Atomic             Coordinates (Angstroms)
 Number     Number       Type             X           Y           Z
 ---------------------------------------------------------------------
      1          6           0        1.356564    1.171884    0.672075
      2          6           0        0.711999    0.116323    1.363823
      3          6           0        0.777151   -1.055550    0.556841
      4          6           0       -0.777132   -1.055526   -0.556878
      5          6           0       -0.711976    0.116384   -1.363805
      6          6           0        1.916666    0.702150   -0.485154
      7          6           0       -1.356575    1.171906   -0.672024
      8          6           0       -1.916700    0.702114    0.485167
      9          6           0       -1.881245   -0.800722    0.464459
     10          6           0        1.881250   -0.800687   -0.464496
     11          1           0        1.337790    2.209154    0.981634
     12          1           0        0.240863    0.193839    2.331756
     13          1           0        0.685835   -2.037769    1.009419
     14          1           0       -0.685802   -2.037724   -1.009498
     15          1           0       -0.240847    0.193942   -2.331739
     16          1           0        2.449120    1.288625   -1.221033
     17          1           0       -1.337812    2.209190   -0.981540
     18          1           0       -2.449182    1.288550    1.221058
     19          1           0       -2.831201   -1.184205    0.062447
     20          1           0       -1.722329   -1.274582    1.434229
     21          1           0        2.831217   -1.184159   -0.062500
     22          1           0        1.722340   -1.274521   -1.434281
 ---------------------------------------------------------------------
 Rotational constants (GHZ):           2.3994844           1.3345227           1.2698389
 Standard basis: 6-311G(d,p) (5D, 7F)
 There are   262 symmetry adapted cartesian basis functions of A   symmetry.
 There are   252 symmetry adapted basis functions of A   symmetry.
   252 basis functions,   416 primitive gaussians,   262 cartesian basis functions
    36 alpha electrons       36 beta electrons
       nuclear repulsion energy       522.1669374746 Hartrees.
 NAtoms=   22 NActive=   22 NUniq=   22 SFac= 1.00D+00 NAtFMM=   60 NAOKFM=F Big=F
 Integral buffers will be    131072 words long.
 Raffenetti 2 integral format.
 Two-electron integral symmetry is turned on.
 Nuclear repulsion after empirical dispersion term =      522.1213946025 Hartrees.
 Force inversion solution in PCM.
 ------------------------------------------------------------------------------
 Polarizable Continuum Model (PCM)
 =================================
 Model                : PCM.
 Atomic radii         : UFF (Universal Force Field).
 Polarization charges : Total charges.
 Charge compensation  : None.
 Solution method      : Matrix inversion.
 Cavity type          : Scaled VdW (van der Waals Surface) (Alpha=1.100).
 Cavity algorithm     : GePol (No added spheres)
                        Default sphere list used, NSphG=   22.
                        Lebedev-Laikov grids with approx.  5.0 points / Ang**2.
                        Smoothing algorithm: York/Karplus (Gamma=1.0000).
                        Polarization charges: spherical gaussians, with
                                              point-specific exponents (IZeta= 3).
                        Self-potential: point-specific (ISelfS= 7).
                        Self-field    : sphere-specific E.n sum rule (ISelfD= 2).
 1st derivatives      : Analytical E(r).r(x)/FMM algorithm (CHGder, D1EAlg=3).
                        Cavity 1st derivative terms included.
 2nd derivatives      : Analytical E(r).r(xy)/FMM algorithm (CHGder, D2EAlg=3).
                        Cavity 2nd derivative terms included.
 Solvent              : Cis-Decalin, Eps=   2.213900 Eps(inf)=   2.193361
 ------------------------------------------------------------------------------
 One-electron integrals computed using PRISM.
 NBasis=   252 RedAO= T EigKep=  5.25D-04  NBF=   252
 NBsUse=   252 1.00D-06 EigRej= -1.00D+00 NBFU=   252
 ExpMin= 1.03D-01 ExpMax= 4.56D+03 ExpMxC= 6.82D+02 IAcc=3 IRadAn=         5 AccDes= 0.00D+00
 Harris functional with IExCor=  402 and IRadAn=       5 diagonalized for initial guess.
 HarFok:  IExCor=  402 AccDes= 0.00D+00 IRadAn=         5 IDoV= 1 UseB2=F ITyADJ=14
 ICtDFT=  3500011 ScaDFX=  1.000000  1.000000  1.000000  1.000000
 FoFCou: FMM=F IPFlag=           0 FMFlag=      100000 FMFlg1=           0
         NFxFlg=           0 DoJE=T BraDBF=F KetDBF=T FulRan=T
         wScrn=  0.000000 ICntrl=       500 IOpCl=  0 I1Cent=   200000004 NGrid=           0
         NMat0=    1 NMatS0=      1 NMatT0=    0 NMatD0=    1 NMtDS0=    0 NMtDT0=    0
 Petite list used in FoFCou.
 Requested convergence on RMS density matrix=1.00D-08 within 128 cycles.
 Requested convergence on MAX density matrix=1.00D-06.
 Requested convergence on             energy=1.00D-06.
 No special actions if energy rises.
 Inv3:  Mode=1 IEnd=     7022700.
 Iteration    1 A*A^-1 deviation from unit magnitude is 5.33D-15 for   1525.
 Iteration    1 A*A^-1 deviation from orthogonality  is 2.75D-15 for    995    319.
 Iteration    1 A^-1*A deviation from unit magnitude is 5.33D-15 for   1525.
 Iteration    1 A^-1*A deviation from orthogonality  is 2.22D-15 for    976    333.
 Error on total polarization charges =  0.00621
 SCF Done:  E(RB3LYP) =  -388.319368769     A.U. after   12 cycles
            NFock= 12  Conv=0.36D-08     -V/T= 2.0048
 DoSCS=F DFT=T ScalE2(SS,OS)=  1.000000  1.000000
 Range of M.O.s used for correlation:     1   252
 NBasis=   252 NAE=    36 NBE=    36 NFC=     0 NFV=     0
 NROrb=    252 NOA=    36 NOB=    36 NVA=   216 NVB=   216
 Symmetrizing basis deriv contribution to polar:
 IMax=3 JMax=2 DiffMx= 0.00D+00
 G2DrvN: will do    23 centers at a time, making    1 passes.
 Calling FoFCou, ICntrl=  3107 FMM=F I1Cent=   0 AccDes= 0.00D+00.
 NEqPCM:  Using equilibrium solvation (IEInf=0, Eps=   2.2139, EpsInf=   2.1934)
 G2PCM: DoFxE=T DoFxN=T DoGrad=T DoDP/DQ/DG/TGxP=FFFF NFrqRd=   0 IEInf=0 SqF1=F DoCFld=F IF1Alg=4.
 End of G2Drv F.D. properties file   721 does not exist.
 End of G2Drv F.D. properties file   722 does not exist.
 End of G2Drv F.D. properties file   788 does not exist.
          IDoAtm=1111111111111111111111
 NEqPCM:  Using equilibrium solvation (IEInf=0, Eps=   2.2139, EpsInf=   2.1934)
          Differentiating once with respect to electric field.
                with respect to dipole field.
          Differentiating once with respect to nuclear coordinates.
 Keep R1 ints in memory in canonical form, NReq=612588626.
          There are    69 degrees of freedom in the 1st order CPHF.  IDoFFX=6 NUNeed=     3.
     66 vectors produced by pass  0 Test12= 1.13D-14 1.45D-09 XBig12= 3.22D+02 1.60D+01.
 AX will form    66 AO Fock derivatives at one time.
     66 vectors produced by pass  1 Test12= 1.13D-14 1.45D-09 XBig12= 5.47D+01 1.30D+00.
     66 vectors produced by pass  2 Test12= 1.13D-14 1.45D-09 XBig12= 4.94D-01 1.15D-01.
     66 vectors produced by pass  3 Test12= 1.13D-14 1.45D-09 XBig12= 1.03D-03 5.63D-03.
     66 vectors produced by pass  4 Test12= 1.13D-14 1.45D-09 XBig12= 1.78D-06 2.32D-04.
     48 vectors produced by pass  5 Test12= 1.13D-14 1.45D-09 XBig12= 1.89D-09 5.18D-06.
      7 vectors produced by pass  6 Test12= 1.13D-14 1.45D-09 XBig12= 1.93D-12 2.31D-07.
      3 vectors produced by pass  7 Test12= 1.13D-14 1.45D-09 XBig12= 1.86D-15 5.52D-09.
 InvSVY:  IOpt=1 It=  1 EMax= 1.42D-14
 Solved reduced A of dimension   388 with    69 vectors.
 Isotropic polarizability for W=    0.000000      134.10 Bohr**3.
 End of Minotr F.D. properties file   721 does not exist.
 End of Minotr F.D. properties file   722 does not exist.
 End of Minotr F.D. properties file   788 does not exist.

 **********************************************************************

            Population analysis using the SCF density.

 **********************************************************************

 Orbital symmetries:
       Occupied  (A) (A) (A) (A) (A) (A) (A) (A) (A) (A) (A) (A)
                 (A) (A) (A) (A) (A) (A) (A) (A) (A) (A) (A) (A)
                 (A) (A) (A) (A) (A) (A) (A) (A) (A) (A) (A) (A)
       Virtual   (A) (A) (A) (A) (A) (A) (A) (A) (A) (A) (A) (A)
                 (A) (A) (A) (A) (A) (A) (A) (A) (A) (A) (A) (A)
                 (A) (A) (A) (A) (A) (A) (A) (A) (A) (A) (A) (A)
                 (A) (A) (A) (A) (A) (A) (A) (A) (A) (A) (A) (A)
                 (A) (A) (A) (A) (A) (A) (A) (A) (A) (A) (A) (A)
                 (A) (A) (A) (A) (A) (A) (A) (A) (A) (A) (A) (A)
                 (A) (A) (A) (A) (A) (A) (A) (A) (A) (A) (A) (A)
                 (A) (A) (A) (A) (A) (A) (A) (A) (A) (A) (A) (A)
                 (A) (A) (A) (A) (A) (A) (A) (A) (A) (A) (A) (A)
                 (A) (A) (A) (A) (A) (A) (A) (A) (A) (A) (A) (A)
                 (A) (A) (A) (A) (A) (A) (A) (A) (A) (A) (A) (A)
                 (A) (A) (A) (A) (A) (A) (A) (A) (A) (A) (A) (A)
                 (A) (A) (A) (A) (A) (A) (A) (A) (A) (A) (A) (A)
                 (A) (A) (A) (A) (A) (A) (A) (A) (A) (A) (A) (A)
                 (A) (A) (A) (A) (A) (A) (A) (A) (A) (A) (A) (A)
                 (A) (A) (A) (A) (A) (A) (A) (A) (A) (A) (A) (A)
                 (A) (A) (A) (A) (A) (A) (A) (A) (A) (A) (A) (A)
                 (A) (A) (A) (A) (A) (A) (A) (A) (A) (A) (A) (A)
 The electronic state is 1-A.
 Alpha  occ. eigenvalues --  -10.17981 -10.17979 -10.16869 -10.16869 -10.16506
 Alpha  occ. eigenvalues --  -10.16506 -10.16095 -10.16093 -10.16037 -10.16036
 Alpha  occ. eigenvalues --   -0.86917  -0.83865  -0.71999  -0.70651  -0.69086
 Alpha  occ. eigenvalues --   -0.68191  -0.56115  -0.55048  -0.53174  -0.51587
 Alpha  occ. eigenvalues --   -0.51518  -0.49971  -0.45373  -0.42229  -0.39201
 Alpha  occ. eigenvalues --   -0.37992  -0.37523  -0.36991  -0.36405  -0.35922
 Alpha  occ. eigenvalues --   -0.35692  -0.34121  -0.31870  -0.26926  -0.25877
 Alpha  occ. eigenvalues --   -0.17996
 Alpha virt. eigenvalues --   -0.04211   0.02993   0.03425   0.04671   0.07406
 Alpha virt. eigenvalues --    0.07745   0.07795   0.09631   0.09765   0.10880
 Alpha virt. eigenvalues --    0.10895   0.12810   0.12876   0.14901   0.15071
 Alpha virt. eigenvalues --    0.17950   0.18662   0.19931   0.21845   0.22618
 Alpha virt. eigenvalues --    0.26364   0.27674   0.30545   0.31146   0.31809
 Alpha virt. eigenvalues --    0.32789   0.35355   0.37780   0.38108   0.38388
 Alpha virt. eigenvalues --    0.39230   0.40591   0.41759   0.42041   0.43235
 Alpha virt. eigenvalues --    0.44391   0.45240   0.45526   0.46542   0.49735
 Alpha virt. eigenvalues --    0.50217   0.52065   0.54956   0.55217   0.55990
 Alpha virt. eigenvalues --    0.56335   0.58742   0.59109   0.59638   0.59740
 Alpha virt. eigenvalues --    0.60611   0.61134   0.61945   0.63641   0.64106
 Alpha virt. eigenvalues --    0.64519   0.65724   0.66421   0.67689   0.69557
 Alpha virt. eigenvalues --    0.70141   0.70748   0.71798   0.74428   0.75660
 Alpha virt. eigenvalues --    0.78300   0.81091   0.82274   0.85915   0.87061
 Alpha virt. eigenvalues --    0.88255   0.91004   0.92685   0.97475   0.99394
 Alpha virt. eigenvalues --    1.04843   1.05348   1.06527   1.10023   1.14624
 Alpha virt. eigenvalues --    1.15288   1.19805   1.19973   1.22660   1.22717
 Alpha virt. eigenvalues --    1.26380   1.31107   1.33805   1.38610   1.42429
 Alpha virt. eigenvalues --    1.46171   1.48336   1.49515   1.49960   1.51171
 Alpha virt. eigenvalues --    1.51889   1.52875   1.54238   1.55794   1.57426
 Alpha virt. eigenvalues --    1.58407   1.59431   1.59876   1.60573   1.61438
 Alpha virt. eigenvalues --    1.64062   1.64906   1.67211   1.67968   1.71709
 Alpha virt. eigenvalues --    1.72074   1.73048   1.74454   1.76281   1.77401
 Alpha virt. eigenvalues --    1.77463   1.81845   1.82561   1.83050   1.83581
 Alpha virt. eigenvalues --    1.83853   1.86265   1.86305   1.87583   1.89129
 Alpha virt. eigenvalues --    1.92233   1.92658   1.93945   1.97456   1.98206
 Alpha virt. eigenvalues --    2.00480   2.01102   2.01906   2.06532   2.07459
 Alpha virt. eigenvalues --    2.13170   2.13511   2.16910   2.17122   2.17400
 Alpha virt. eigenvalues --    2.21885   2.22283   2.26874   2.29727   2.33083
 Alpha virt. eigenvalues --    2.35316   2.36805   2.37683   2.40464   2.41977
 Alpha virt. eigenvalues --    2.44997   2.45540   2.48468   2.49610   2.50554
 Alpha virt. eigenvalues --    2.52759   2.60420   2.60635   2.60661   2.62760
 Alpha virt. eigenvalues --    2.64688   2.67579   2.68203   2.69275   2.70712
 Alpha virt. eigenvalues --    2.71164   2.74378   2.75189   2.76605   2.78462
 Alpha virt. eigenvalues --    2.80773   2.84450   2.86744   2.90093   2.91569
 Alpha virt. eigenvalues --    2.92260   2.93077   2.96187   3.00607   3.04532
 Alpha virt. eigenvalues --    3.09018   3.09108   3.11003   3.17804   3.19547
 Alpha virt. eigenvalues --    3.30792   3.32532   3.40922   3.43103   3.44391
 Alpha virt. eigenvalues --    3.46030   3.52549   3.54404   3.60626   3.77262
 Alpha virt. eigenvalues --    3.80454   4.03679   4.03821   4.06849   4.09038
 Alpha virt. eigenvalues --    4.09371   4.14066   4.15615   4.19890   4.49226
 Alpha virt. eigenvalues --    4.51518  23.63638  23.75722  23.89019  23.89210
 Alpha virt. eigenvalues --   23.91534  24.00470  24.06541  24.09291  24.19108
 Alpha virt. eigenvalues --   24.19671
          Condensed to atoms (all electrons):
               1          2          3          4          5          6
     1  C    4.864690   0.471144  -0.076805  -0.009180   0.007729   0.548129
     2  C    0.471144   5.066766   0.469868  -0.063375  -0.060741  -0.093426
     3  C   -0.076805   0.469868   5.201074   0.157712  -0.063376  -0.087729
     4  C   -0.009180  -0.063375   0.157712   5.201072   0.469868  -0.017746
     5  C    0.007729  -0.060741  -0.063376   0.469868   5.066772   0.049098
     6  C    0.548129  -0.093426  -0.087729  -0.017746   0.049098   5.103355
     7  C   -0.016917   0.007729  -0.009179  -0.076804   0.471138  -0.011634
     8  C   -0.011632   0.049092  -0.017744  -0.087729  -0.093425  -0.003674
     9  C    0.000413  -0.013258  -0.044470   0.375015  -0.091546   0.000909
    10  C   -0.088500  -0.091545   0.375013  -0.044471  -0.013259   0.367455
    11  H    0.421610  -0.044494   0.006649  -0.000205   0.000363  -0.045414
    12  H   -0.036331   0.419362  -0.040237  -0.001305   0.000205   0.006502
    13  H    0.007656  -0.035940   0.407144  -0.023465   0.004544   0.006464
    14  H   -0.000210   0.004544  -0.023466   0.407145  -0.035939  -0.000239
    15  H   -0.000514   0.000205  -0.001304  -0.040237   0.419362   0.002443
    16  H   -0.038184   0.008465   0.005068   0.000324  -0.001670   0.416900
    17  H    0.001889   0.000363  -0.000205   0.006649  -0.044494   0.000441
    18  H    0.000149  -0.001670   0.000324   0.005068   0.008465   0.000046
    19  H   -0.000220   0.003743   0.007274  -0.031511   0.000087  -0.000258
    20  H    0.000854  -0.003720  -0.003744  -0.042981   0.008570   0.000110
    21  H   -0.001962   0.000087  -0.031511   0.007274   0.003743  -0.038646
    22  H    0.005799   0.008570  -0.042981  -0.003743  -0.003720  -0.037277
               7          8          9         10         11         12
     1  C   -0.016917  -0.011632   0.000413  -0.088500   0.421610  -0.036331
     2  C    0.007729   0.049092  -0.013258  -0.091545  -0.044494   0.419362
     3  C   -0.009179  -0.017744  -0.044470   0.375013   0.006649  -0.040237
     4  C   -0.076804  -0.087729   0.375015  -0.044471  -0.000205  -0.001305
     5  C    0.471138  -0.093425  -0.091546  -0.013259   0.000363   0.000205
     6  C   -0.011634  -0.003674   0.000909   0.367455  -0.045414   0.006502
     7  C    4.864687   0.548136  -0.088499   0.000413   0.001889  -0.000513
     8  C    0.548136   5.103347   0.367454   0.000909   0.000441   0.002444
     9  C   -0.088499   0.367454   4.895010   0.004958  -0.000075  -0.000061
    10  C    0.000413   0.000909   0.004958   4.895014   0.008520   0.006525
    11  H    0.001889   0.000441  -0.000075   0.008520   0.573259  -0.003111
    12  H   -0.000513   0.002444  -0.000061   0.006525  -0.003111   0.549446
    13  H   -0.000210  -0.000239  -0.003053  -0.028931  -0.000273  -0.003764
    14  H    0.007655   0.006464  -0.028931  -0.003054   0.000036  -0.000093
    15  H   -0.036330   0.006502   0.006525  -0.000061  -0.000048   0.000003
    16  H    0.000149   0.000046   0.000002  -0.037326  -0.004810  -0.000315
    17  H    0.421610  -0.045414   0.008520  -0.000075   0.000100  -0.000048
    18  H   -0.038184   0.416900  -0.037326   0.000002   0.000020   0.000301
    19  H   -0.001962  -0.038646   0.387690  -0.000278  -0.000001   0.000120
    20  H    0.005798  -0.037276   0.409727   0.000532  -0.000011  -0.000219
    21  H   -0.000220  -0.000258  -0.000278   0.387689  -0.000405  -0.000276
    22  H    0.000854   0.000110   0.000532   0.409727  -0.000261  -0.000300
              13         14         15         16         17         18
     1  C    0.007656  -0.000210  -0.000514  -0.038184   0.001889   0.000149
     2  C   -0.035940   0.004544   0.000205   0.008465   0.000363  -0.001670
     3  C    0.407144  -0.023466  -0.001304   0.005068  -0.000205   0.000324
     4  C   -0.023465   0.407145  -0.040237   0.000324   0.006649   0.005068
     5  C    0.004544  -0.035939   0.419362  -0.001670  -0.044494   0.008465
     6  C    0.006464  -0.000239   0.002443   0.416900   0.000441   0.000046
     7  C   -0.000210   0.007655  -0.036330   0.000149   0.421610  -0.038184
     8  C   -0.000239   0.006464   0.006502   0.000046  -0.045414   0.416900
     9  C   -0.003053  -0.028931   0.006525   0.000002   0.008520  -0.037326
    10  C   -0.028931  -0.003054  -0.000061  -0.037326  -0.000075   0.000002
    11  H   -0.000273   0.000036  -0.000048  -0.004810   0.000100   0.000020
    12  H   -0.003764  -0.000093   0.000003  -0.000315  -0.000048   0.000301
    13  H    0.550182  -0.003388  -0.000093  -0.000327   0.000036   0.000023
    14  H   -0.003388   0.550181  -0.003764   0.000023  -0.000273  -0.000327
    15  H   -0.000093  -0.003764   0.549444   0.000301  -0.003111  -0.000315
    16  H   -0.000327   0.000023   0.000301   0.558667   0.000020   0.000000
    17  H    0.000036  -0.000273  -0.003111   0.000020   0.573259  -0.004810
    18  H    0.000023  -0.000327  -0.000315   0.000000  -0.004810   0.558667
    19  H   -0.000366  -0.002250  -0.000276   0.000001  -0.000405   0.000369
    20  H    0.002435  -0.000783  -0.000300  -0.000005  -0.000261  -0.002044
    21  H   -0.002250  -0.000366   0.000120   0.000369  -0.000001   0.000001
    22  H   -0.000783   0.002435  -0.000219  -0.002044  -0.000011  -0.000005
              19         20         21         22
     1  C   -0.000220   0.000854  -0.001962   0.005799
     2  C    0.003743  -0.003720   0.000087   0.008570
     3  C    0.007274  -0.003744  -0.031511  -0.042981
     4  C   -0.031511  -0.042981   0.007274  -0.003743
     5  C    0.000087   0.008570   0.003743  -0.003720
     6  C   -0.000258   0.000110  -0.038646  -0.037277
     7  C   -0.001962   0.005798  -0.000220   0.000854
     8  C   -0.038646  -0.037276  -0.000258   0.000110
     9  C    0.387690   0.409727  -0.000278   0.000532
    10  C   -0.000278   0.000532   0.387689   0.409727
    11  H   -0.000001  -0.000011  -0.000405  -0.000261
    12  H    0.000120  -0.000219  -0.000276  -0.000300
    13  H   -0.000366   0.002435  -0.002250  -0.000783
    14  H   -0.002250  -0.000783  -0.000366   0.002435
    15  H   -0.000276  -0.000300   0.000120  -0.000219
    16  H    0.000001  -0.000005   0.000369  -0.002044
    17  H   -0.000405  -0.000261  -0.000001  -0.000011
    18  H    0.000369  -0.002044   0.000001  -0.000005
    19  H    0.579560  -0.032409  -0.000006  -0.000047
    20  H   -0.032409   0.578601  -0.000047  -0.000020
    21  H   -0.000006  -0.000047   0.579560  -0.032409
    22  H   -0.000047  -0.000020  -0.032409   0.578601
 Mulliken charges:
               1
     1  C   -0.049606
     2  C   -0.101770
     3  C   -0.187373
     4  C   -0.187372
     5  C   -0.101774
     6  C   -0.165811
     7  C   -0.049606
     8  C   -0.165808
     9  C   -0.149257
    10  C   -0.149258
    11  H    0.086222
    12  H    0.101666
    13  H    0.124599
    14  H    0.124600
    15  H    0.101667
    16  H    0.094347
    17  H    0.086222
    18  H    0.094347
    19  H    0.129790
    20  H    0.117192
    21  H    0.129790
    22  H    0.117192
 Sum of Mulliken charges =  -0.00000
 Mulliken charges with hydrogens summed into heavy atoms:
               1
     1  C    0.036616
     2  C   -0.000105
     3  C   -0.062773
     4  C   -0.062772
     5  C   -0.000107
     6  C   -0.071463
     7  C    0.036616
     8  C   -0.071461
     9  C    0.097725
    10  C    0.097725
 APT charges:
               1
     1  C   -0.014859
     2  C   -0.140379
     3  C    0.090204
     4  C    0.090192
     5  C   -0.140367
     6  C   -0.028433
     7  C   -0.014859
     8  C   -0.028440
     9  C    0.017738
    10  C    0.017738
    11  H    0.040704
    12  H    0.049945
    13  H   -0.001775
    14  H   -0.001775
    15  H    0.049942
    16  H    0.016869
    17  H    0.040703
    18  H    0.016872
    19  H   -0.033431
    20  H    0.003423
    21  H   -0.033432
    22  H    0.003422
 Sum of APT charges =   0.00000
 APT charges with hydrogens summed into heavy atoms:
               1
     1  C    0.025844
     2  C   -0.090434
     3  C    0.088429
     4  C    0.088417
     5  C   -0.090425
     6  C   -0.011565
     7  C    0.025844
     8  C   -0.011568
     9  C   -0.012270
    10  C   -0.012272
 Electronic spatial extent (au):  <R**2>=           1171.0499
 Charge=             -0.0000 electrons
 Dipole moment (field-independent basis, Debye):
    X=             -0.0000    Y=             -0.5456    Z=             -0.0000  Tot=              0.5456
 Quadrupole moment (field-independent basis, Debye-Ang):
   XX=            -62.7247   YY=            -57.1086   ZZ=            -59.8485
   XY=              0.0001   XZ=             -3.8507   YZ=              0.0000
 Traceless Quadrupole moment (field-independent basis, Debye-Ang):
   XX=             -2.8308   YY=              2.7854   ZZ=              0.0454
   XY=              0.0001   XZ=             -3.8507   YZ=              0.0000
 Octapole moment (field-independent basis, Debye-Ang**2):
  XXX=             -0.0003  YYY=              2.4443  ZZZ=             -0.0001  XYY=             -0.0000
  XXY=             -2.0395  XXZ=              0.0000  XZZ=             -0.0001  YZZ=              0.9972
  YYZ=             -0.0001  XYZ=             -1.1256
 Hexadecapole moment (field-independent basis, Debye-Ang**3):
 XXXX=           -894.4915 YYYY=           -389.7720 ZZZZ=           -346.8287 XXXY=              0.0001
 XXXZ=            -25.5184 YYYX=             -0.0000 YYYZ=              0.0001 ZZZX=            -17.8427
 ZZZY=              0.0000 XXYY=           -209.2737 XXZZ=           -212.1371 YYZZ=           -122.8707
 XXYZ=              0.0004 YYXZ=             -0.9899 ZZXY=              0.0004
 N-N= 5.221213946025D+02 E-N=-1.944816720375D+03  KE= 3.864791437632D+02
  Exact polarizability: 166.038   0.000 118.058  -2.087  -0.000 118.216
 Approx polarizability: 264.096   0.001 170.969   6.367  -0.001 199.825
 D2PCM: PCM CHGder 2nd derivatives, FixD1E=F FixD2E=F DoIter=F DoCFld=F I1PDM=0
 Calling FoFJK, ICntrl=    100127 FMM=F ISym2X=0 I1Cent= 0 IOpClX= 0 NMat=1 NMatS=1 NMatT=0.
 Full mass-weighted force constant matrix:
 Low frequencies --- -398.7698   -0.0006   -0.0005   -0.0004    2.7760   16.3178
 Low frequencies ---   20.5818   83.1844  146.8667
 ******    1 imaginary frequencies (negative Signs) ****** 
 Diagonal vibrational polarizability:
        8.7129096       2.2128599       9.8613511
 Harmonic frequencies (cm**-1), IR intensities (KM/Mole), Raman scattering
 activities (A**4/AMU), depolarization ratios for plane and unpolarized
 incident light, reduced masses (AMU), force constants (mDyne/A),
 and normal coordinates:
                      1                      2                      3
                      A                      A                      A
 Frequencies --   -398.7698                83.1748               146.8665
 Red. masses --      9.1968                 4.6588                 3.3250
 Frc consts  --      0.8617                 0.0190                 0.0423
 IR Inten    --      1.2592                 1.4149                 0.0270
  Atom  AN      X      Y      Z        X      Y      Z        X      Y      Z
     1   6     0.02   0.03  -0.06     0.03   0.06   0.00     0.09   0.03  -0.12
     2   6     0.12  -0.07   0.05    -0.20   0.09  -0.11    -0.00   0.14  -0.04
     3   6     0.44  -0.00   0.36    -0.10   0.07  -0.08    -0.06   0.07   0.06
     4   6    -0.44  -0.00  -0.36    -0.10  -0.07  -0.08     0.06   0.07  -0.06
     5   6    -0.12  -0.07  -0.05    -0.20  -0.09  -0.11     0.00   0.14   0.04
     6   6     0.11   0.02   0.04     0.24   0.03   0.14     0.11  -0.12  -0.05
     7   6    -0.02   0.03   0.06     0.03  -0.06   0.00    -0.09   0.03   0.12
     8   6    -0.11   0.02  -0.04     0.24  -0.03   0.14    -0.11  -0.12   0.05
     9   6    -0.05   0.02  -0.04     0.02  -0.04   0.04    -0.01  -0.11  -0.09
    10   6     0.05   0.02   0.04     0.02   0.04   0.04     0.01  -0.11   0.09
    11   1    -0.12   0.05  -0.11     0.06   0.06   0.02     0.15   0.07  -0.23
    12   1    -0.03   0.02  -0.03    -0.18   0.07  -0.10    -0.02   0.26  -0.06
    13   1    -0.00  -0.08   0.06    -0.11   0.09  -0.05    -0.14   0.11   0.14
    14   1     0.00  -0.08  -0.06    -0.11  -0.09  -0.05     0.14   0.11  -0.14
    15   1     0.03   0.02   0.03    -0.18  -0.07  -0.10     0.02   0.26   0.06
    16   1     0.08  -0.00   0.01     0.39   0.00   0.23     0.19  -0.23  -0.08
    17   1     0.12   0.05   0.11     0.06  -0.06   0.02    -0.15   0.07   0.23
    18   1    -0.08  -0.00  -0.01     0.39  -0.00   0.23    -0.19  -0.23   0.08
    19   1    -0.15   0.03   0.18    -0.06   0.13   0.07     0.03  -0.13  -0.17
    20   1     0.13   0.01  -0.07     0.04  -0.14  -0.02    -0.02  -0.19  -0.12
    21   1     0.15   0.03  -0.18    -0.06  -0.13   0.07    -0.03  -0.13   0.17
    22   1    -0.13   0.01   0.07     0.04   0.14  -0.02     0.02  -0.19   0.12
                      4                      5                      6
                      A                      A                      A
 Frequencies --    182.1123               270.5929               336.5823
 Red. masses --      3.9296                 3.2034                 3.5693
 Frc consts  --      0.0768                 0.1382                 0.2382
 IR Inten    --      0.3773                 0.0021                 0.0493
  Atom  AN      X      Y      Z        X      Y      Z        X      Y      Z
     1   6     0.20  -0.03   0.11     0.16   0.06   0.06     0.11  -0.01   0.11
     2   6     0.10  -0.03   0.01     0.06   0.09   0.04     0.05   0.03   0.13
     3   6    -0.01   0.02  -0.09    -0.06   0.09   0.02    -0.05   0.04   0.12
     4   6     0.01   0.02   0.09    -0.06  -0.09   0.02     0.05   0.04  -0.12
     5   6    -0.10  -0.03  -0.01     0.06  -0.09   0.04    -0.05   0.03  -0.13
     6   6     0.21   0.02   0.10    -0.02   0.06  -0.02    -0.14  -0.03  -0.00
     7   6    -0.20  -0.03  -0.11     0.16  -0.06   0.06    -0.11  -0.01  -0.11
     8   6    -0.21   0.02  -0.10    -0.02  -0.06  -0.02     0.14  -0.03   0.00
     9   6    -0.02   0.02   0.06    -0.15  -0.06  -0.09     0.17  -0.03  -0.02
    10   6     0.02   0.02  -0.06    -0.15   0.06  -0.09    -0.17  -0.03   0.02
    11   1     0.33  -0.06   0.22     0.34   0.04   0.14     0.28  -0.02   0.16
    12   1     0.07  -0.06  -0.00     0.17   0.08   0.09     0.19   0.03   0.20
    13   1     0.01   0.01  -0.11    -0.01   0.10   0.06    -0.14   0.04   0.10
    14   1    -0.01   0.01   0.11    -0.01  -0.10   0.06     0.14   0.04  -0.10
    15   1    -0.07  -0.06   0.00     0.17  -0.08   0.09    -0.19   0.03  -0.20
    16   1     0.30   0.03   0.17    -0.02   0.04  -0.04    -0.21  -0.06  -0.07
    17   1    -0.33  -0.06  -0.22     0.34  -0.04   0.14    -0.28  -0.02  -0.16
    18   1    -0.30   0.03  -0.17    -0.02  -0.04  -0.04     0.21  -0.06   0.07
    19   1     0.03  -0.14   0.10    -0.13   0.04  -0.24     0.11  -0.02   0.10
    20   1     0.03   0.15   0.12    -0.31  -0.13  -0.10     0.30  -0.05  -0.06
    21   1    -0.03  -0.14  -0.10    -0.13  -0.04  -0.24    -0.11  -0.02  -0.10
    22   1    -0.03   0.15  -0.12    -0.31   0.13  -0.10    -0.30  -0.05   0.06
                      7                      8                      9
                      A                      A                      A
 Frequencies --    419.4232               443.5145               560.9442
 Red. masses --      1.9837                 1.8908                 2.9068
 Frc consts  --      0.2056                 0.2191                 0.5389
 IR Inten    --      0.1632                 0.7428                 1.8105
  Atom  AN      X      Y      Z        X      Y      Z        X      Y      Z
     1   6    -0.06   0.00  -0.02     0.09  -0.01   0.05    -0.13   0.04  -0.06
     2   6    -0.10   0.02  -0.03    -0.00   0.01  -0.03     0.17  -0.03   0.11
     3   6    -0.00   0.01   0.03    -0.08   0.02  -0.07    -0.08   0.03  -0.03
     4   6     0.00   0.01  -0.03    -0.08  -0.02  -0.07     0.08   0.03   0.03
     5   6     0.10   0.02   0.03    -0.00  -0.01  -0.03    -0.17  -0.03  -0.11
     6   6     0.05  -0.02   0.05    -0.08   0.02  -0.06     0.08  -0.01   0.07
     7   6     0.06   0.00   0.02     0.09   0.01   0.05     0.13   0.04   0.06
     8   6    -0.05  -0.02  -0.05    -0.08  -0.02  -0.06    -0.08  -0.01  -0.07
     9   6     0.12  -0.01   0.09     0.04  -0.02   0.07     0.03  -0.02  -0.02
    10   6    -0.12  -0.01  -0.09     0.04   0.02   0.07    -0.03  -0.02   0.02
    11   1    -0.08   0.01  -0.05     0.22  -0.04   0.15    -0.35   0.08  -0.20
    12   1    -0.21   0.06  -0.09    -0.04   0.01  -0.05     0.35  -0.07   0.21
    13   1    -0.05   0.01  -0.00    -0.12   0.02  -0.08    -0.06   0.01  -0.04
    14   1     0.05   0.01   0.00    -0.12  -0.02  -0.08     0.06   0.01   0.04
    15   1     0.21   0.06   0.09    -0.04  -0.01  -0.05    -0.35  -0.07  -0.21
    16   1     0.12  -0.03   0.10    -0.07   0.01  -0.06    -0.03  -0.02  -0.01
    17   1     0.08   0.01   0.05     0.22   0.04   0.15     0.35   0.08   0.20
    18   1    -0.12  -0.03  -0.10    -0.07  -0.01  -0.06     0.03  -0.02   0.01
    19   1     0.09  -0.23   0.35    -0.00  -0.23   0.39     0.09  -0.19  -0.01
    20   1     0.38   0.15   0.12     0.34   0.16   0.12     0.08   0.11   0.03
    21   1    -0.09  -0.23  -0.35    -0.00   0.23   0.39    -0.09  -0.19   0.01
    22   1    -0.38   0.15  -0.12     0.34  -0.16   0.12    -0.08   0.11  -0.03
                     10                     11                     12
                      A                      A                      A
 Frequencies --    600.3232               706.3702               708.7396
 Red. masses --      2.3418                 1.2567                 1.2042
 Frc consts  --      0.4972                 0.3694                 0.3564
 IR Inten    --      1.2339                 1.6896                67.9494
  Atom  AN      X      Y      Z        X      Y      Z        X      Y      Z
     1   6    -0.07   0.05  -0.06    -0.04  -0.01  -0.04    -0.04  -0.02  -0.04
     2   6     0.14  -0.03   0.05     0.00  -0.02  -0.01    -0.00  -0.01   0.00
     3   6    -0.12   0.02  -0.07    -0.00  -0.01   0.02     0.02  -0.01   0.03
     4   6    -0.12  -0.02  -0.07     0.00  -0.01  -0.02     0.02   0.01   0.03
     5   6     0.14   0.03   0.05    -0.00  -0.02   0.01    -0.00   0.01   0.00
     6   6     0.07   0.02   0.03    -0.01   0.02  -0.04    -0.02   0.02  -0.04
     7   6    -0.07  -0.05  -0.06     0.04  -0.01   0.04    -0.04   0.02  -0.04
     8   6     0.07  -0.02   0.03     0.01   0.02   0.04    -0.02  -0.02  -0.04
     9   6    -0.03  -0.01   0.03     0.06   0.03  -0.01    -0.03  -0.02  -0.00
    10   6    -0.03   0.01   0.03    -0.06   0.03   0.01    -0.03   0.02  -0.00
    11   1    -0.19   0.06  -0.12     0.17  -0.06   0.13     0.20  -0.06   0.13
    12   1     0.48  -0.11   0.23     0.19  -0.04   0.08     0.14  -0.02   0.07
    13   1    -0.10   0.01  -0.09     0.00  -0.03  -0.02     0.04  -0.03  -0.00
    14   1    -0.10  -0.01  -0.09    -0.00  -0.03   0.02     0.04   0.03  -0.00
    15   1     0.48   0.11   0.23    -0.19  -0.04  -0.08     0.14   0.02   0.07
    16   1     0.01  -0.00  -0.03     0.52  -0.04   0.29     0.53  -0.04   0.30
    17   1    -0.19  -0.06  -0.12    -0.17  -0.06  -0.13     0.20   0.07   0.13
    18   1     0.01   0.00  -0.03    -0.51  -0.04  -0.29     0.53   0.04   0.30
    19   1    -0.13   0.06   0.20     0.05   0.15  -0.10     0.00  -0.14   0.04
    20   1     0.11  -0.04  -0.01    -0.03  -0.08  -0.05     0.02   0.09   0.04
    21   1    -0.13  -0.06   0.20    -0.05   0.15   0.10     0.00   0.14   0.04
    22   1     0.11   0.04  -0.01     0.03  -0.08   0.05     0.02  -0.09   0.04
                     13                     14                     15
                      A                      A                      A
 Frequencies --    745.4356               755.7125               798.3364
 Red. masses --      1.3534                 1.4342                 3.2588
 Frc consts  --      0.4431                 0.4826                 1.2237
 IR Inten    --     76.1410                 0.0027                 0.0204
  Atom  AN      X      Y      Z        X      Y      Z        X      Y      Z
     1   6     0.01  -0.01   0.00     0.02  -0.03  -0.02    -0.05  -0.06   0.02
     2   6    -0.11   0.02  -0.03     0.07  -0.05   0.04     0.00   0.04   0.16
     3   6     0.03   0.01   0.01    -0.03   0.01   0.00     0.04   0.14  -0.04
     4   6     0.03  -0.01   0.01     0.03   0.01  -0.00    -0.04   0.14   0.04
     5   6    -0.11  -0.02  -0.03    -0.07  -0.05  -0.04    -0.00   0.04  -0.16
     6   6    -0.01  -0.02   0.01     0.01   0.03  -0.04    -0.09  -0.07  -0.02
     7   6     0.01   0.01   0.00    -0.02  -0.03   0.02     0.05  -0.06  -0.02
     8   6    -0.01   0.02   0.01    -0.01   0.03   0.04     0.09  -0.07   0.02
     9   6     0.03   0.02  -0.01     0.06   0.04  -0.02    -0.14  -0.07   0.10
    10   6     0.03  -0.02  -0.01    -0.06   0.04   0.02     0.14  -0.07  -0.10
    11   1     0.14  -0.02   0.04    -0.10  -0.03  -0.03     0.10  -0.02  -0.10
    12   1     0.51  -0.22   0.29    -0.52   0.18  -0.27    -0.23   0.07   0.04
    13   1     0.10   0.04   0.09    -0.17  -0.05  -0.16    -0.13   0.11  -0.15
    14   1     0.10  -0.04   0.09     0.17  -0.05   0.16     0.13   0.11   0.15
    15   1     0.51   0.22   0.29     0.52   0.18   0.27     0.23   0.07  -0.04
    16   1    -0.19   0.02  -0.09     0.05   0.01  -0.02     0.26   0.06   0.34
    17   1     0.14   0.02   0.04     0.10  -0.03   0.03    -0.10  -0.02   0.10
    18   1    -0.18  -0.02  -0.09    -0.05   0.01   0.02    -0.26   0.06  -0.34
    19   1     0.04  -0.01  -0.01     0.07   0.09  -0.11    -0.18  -0.03   0.17
    20   1     0.03   0.04  -0.01    -0.02  -0.05  -0.05    -0.02  -0.12   0.06
    21   1     0.04   0.01  -0.01    -0.07   0.09   0.11     0.18  -0.03  -0.17
    22   1     0.03  -0.04  -0.01     0.02  -0.05   0.05     0.02  -0.12  -0.06
                     16                     17                     18
                      A                      A                      A
 Frequencies --    818.1941               831.0872               832.8334
 Red. masses --      4.1669                 5.1955                 3.6096
 Frc consts  --      1.6435                 2.1143                 1.4751
 IR Inten    --      5.1562                35.6280                 2.6121
  Atom  AN      X      Y      Z        X      Y      Z        X      Y      Z
     1   6    -0.07   0.12   0.07    -0.03  -0.20  -0.04    -0.01   0.19   0.06
     2   6     0.06   0.08   0.03    -0.08   0.04   0.26     0.14   0.03  -0.09
     3   6     0.03   0.11  -0.12    -0.05   0.18  -0.01     0.03  -0.09  -0.06
     4   6     0.03  -0.11  -0.12    -0.05  -0.18  -0.01    -0.03  -0.09   0.06
     5   6     0.06  -0.08   0.03    -0.08  -0.04   0.26    -0.14   0.03   0.09
     6   6    -0.14  -0.11   0.09     0.05  -0.04  -0.08    -0.13  -0.02   0.08
     7   6    -0.07  -0.12   0.07    -0.03   0.20  -0.04     0.01   0.19  -0.06
     8   6    -0.14   0.11   0.09     0.05   0.04  -0.08     0.13  -0.02  -0.08
     9   6     0.09   0.15  -0.08     0.11  -0.06  -0.11    -0.00  -0.11  -0.02
    10   6     0.09  -0.15  -0.08     0.11   0.06  -0.11     0.00  -0.11   0.02
    11   1     0.19   0.15   0.00     0.03  -0.13  -0.26     0.03   0.18   0.10
    12   1    -0.08  -0.12  -0.02    -0.16   0.18   0.21    -0.26   0.03  -0.28
    13   1    -0.11   0.19   0.02    -0.01   0.09  -0.20     0.05   0.00   0.16
    14   1    -0.11  -0.19   0.02    -0.01  -0.09  -0.20    -0.05   0.00  -0.16
    15   1    -0.08   0.12  -0.02    -0.16  -0.18   0.21     0.26   0.03   0.28
    16   1     0.20  -0.12   0.34    -0.04   0.23   0.07     0.24  -0.19   0.21
    17   1     0.19  -0.15   0.00     0.03   0.13  -0.26    -0.03   0.18  -0.10
    18   1     0.20   0.12   0.34    -0.04  -0.23   0.07    -0.24  -0.19  -0.21
    19   1     0.10   0.14  -0.10     0.04   0.02   0.00    -0.08  -0.04   0.11
    20   1     0.08   0.05  -0.13     0.09   0.07  -0.05     0.00   0.02   0.05
    21   1     0.10  -0.14  -0.10     0.04  -0.02   0.00     0.08  -0.04  -0.11
    22   1     0.08  -0.05  -0.13     0.09  -0.07  -0.05    -0.00   0.02  -0.05
                     19                     20                     21
                      A                      A                      A
 Frequencies --    890.3434               920.4269               931.8440
 Red. masses --      2.0251                 1.9018                 1.6383
 Frc consts  --      0.9458                 0.9493                 0.8382
 IR Inten    --     13.5243                17.8741                 1.3582
  Atom  AN      X      Y      Z        X      Y      Z        X      Y      Z
     1   6    -0.01   0.03   0.02    -0.00   0.00  -0.01     0.01   0.01   0.01
     2   6    -0.02  -0.03  -0.04     0.00  -0.00  -0.01    -0.01  -0.05  -0.07
     3   6     0.09   0.12  -0.06    -0.09  -0.04   0.04    -0.02   0.04   0.02
     4   6    -0.09   0.12   0.06    -0.09   0.04   0.04     0.02   0.04  -0.02
     5   6     0.02  -0.03   0.04     0.00   0.00  -0.01     0.01  -0.05   0.07
     6   6     0.00  -0.05   0.05    -0.02   0.09  -0.05    -0.01   0.10  -0.04
     7   6     0.01   0.03  -0.02    -0.00  -0.00  -0.01    -0.01   0.01  -0.01
     8   6    -0.00  -0.05  -0.05    -0.02  -0.09  -0.05     0.01   0.10   0.04
     9   6     0.09  -0.03   0.03     0.12   0.06   0.02    -0.04  -0.08  -0.03
    10   6    -0.09  -0.03  -0.03     0.12  -0.06   0.02     0.04  -0.08   0.03
    11   1     0.02   0.05  -0.03     0.00  -0.04   0.15    -0.14  -0.03   0.14
    12   1     0.01  -0.34  -0.01     0.11   0.10   0.03     0.11  -0.16  -0.00
    13   1    -0.11   0.06  -0.24    -0.41   0.01   0.09    -0.52   0.06  -0.06
    14   1     0.11   0.06   0.24    -0.41  -0.01   0.09     0.52   0.06   0.06
    15   1    -0.01  -0.34   0.01     0.11  -0.10   0.03    -0.11  -0.16   0.00
    16   1    -0.12  -0.09  -0.06     0.04   0.20   0.07     0.02   0.16   0.03
    17   1    -0.02   0.05   0.03     0.00   0.04   0.15     0.14  -0.03  -0.14
    18   1     0.12  -0.09   0.06     0.04  -0.20   0.07    -0.02   0.17  -0.03
    19   1     0.20   0.05  -0.33     0.20   0.16  -0.29    -0.06  -0.16   0.11
    20   1    -0.16  -0.23  -0.04    -0.18  -0.08  -0.00     0.17  -0.09  -0.07
    21   1    -0.20   0.05   0.33     0.20  -0.16  -0.29     0.06  -0.16  -0.11
    22   1     0.16  -0.23   0.04    -0.18   0.08  -0.00    -0.17  -0.09   0.07
                     22                     23                     24
                      A                      A                      A
 Frequencies --    949.5848               953.3640               963.0916
 Red. masses --      1.3926                 1.4125                 1.6019
 Frc consts  --      0.7398                 0.7564                 0.8754
 IR Inten    --      1.7287                 6.5667                 8.9391
  Atom  AN      X      Y      Z        X      Y      Z        X      Y      Z
     1   6    -0.09   0.01  -0.04    -0.09   0.01  -0.04    -0.02   0.01  -0.05
     2   6     0.03  -0.00   0.01     0.03  -0.00   0.00    -0.00  -0.01   0.02
     3   6    -0.01  -0.00   0.02    -0.00  -0.01   0.02     0.00  -0.00  -0.03
     4   6     0.01  -0.00  -0.02    -0.00   0.01   0.02     0.00   0.00  -0.03
     5   6    -0.03  -0.00  -0.01     0.03   0.00   0.00    -0.00   0.01   0.02
     6   6     0.04   0.02   0.02     0.06   0.02   0.02    -0.02  -0.07   0.01
     7   6     0.09   0.01   0.04    -0.09  -0.01  -0.04    -0.02  -0.01  -0.05
     8   6    -0.04   0.02  -0.02     0.06  -0.02   0.02    -0.02   0.07   0.01
     9   6    -0.01  -0.04   0.04    -0.01   0.03  -0.04     0.03  -0.08   0.09
    10   6     0.01  -0.04  -0.04    -0.01  -0.03  -0.04     0.03   0.08   0.09
    11   1     0.47  -0.09   0.35     0.43  -0.10   0.35     0.36  -0.01   0.04
    12   1    -0.09   0.07  -0.05    -0.12   0.09  -0.08    -0.02   0.01   0.01
    13   1    -0.03   0.04   0.10     0.06   0.02   0.11    -0.05  -0.07  -0.20
    14   1     0.03   0.04  -0.10     0.06  -0.02   0.11    -0.05   0.07  -0.20
    15   1     0.09   0.07   0.05    -0.12  -0.09  -0.08    -0.02  -0.01   0.01
    16   1    -0.24   0.13  -0.10    -0.24   0.12  -0.11    -0.03  -0.27  -0.15
    17   1    -0.47  -0.09  -0.35     0.43   0.10   0.35     0.36   0.01   0.04
    18   1     0.24   0.13   0.10    -0.24  -0.12  -0.11    -0.03   0.27  -0.15
    19   1     0.02  -0.02  -0.05    -0.06   0.03   0.10     0.11   0.02  -0.20
    20   1    -0.06  -0.09   0.02     0.09   0.10  -0.02    -0.16  -0.34  -0.00
    21   1    -0.02  -0.02   0.05    -0.06  -0.03   0.10     0.11  -0.02  -0.20
    22   1     0.06  -0.09  -0.02     0.09  -0.10  -0.02    -0.16   0.34  -0.00
                     25                     26                     27
                      A                      A                      A
 Frequencies --    974.8430               982.9607              1002.3415
 Red. masses --      1.7080                 1.8705                 1.3909
 Frc consts  --      0.9564                 1.0648                 0.8233
 IR Inten    --      0.0114                36.1701                 0.0359
  Atom  AN      X      Y      Z        X      Y      Z        X      Y      Z
     1   6    -0.02   0.01  -0.04     0.02   0.02  -0.01     0.01   0.02  -0.02
     2   6    -0.00  -0.04  -0.01     0.00   0.03   0.00    -0.01  -0.01  -0.02
     3   6     0.02   0.04  -0.05    -0.06  -0.10   0.07    -0.04  -0.03   0.05
     4   6    -0.02   0.04   0.05    -0.06   0.10   0.07     0.04  -0.03  -0.05
     5   6     0.00  -0.04   0.01     0.00  -0.03   0.00     0.01  -0.01   0.02
     6   6    -0.03  -0.05  -0.01    -0.01  -0.05   0.06    -0.01  -0.05   0.05
     7   6     0.02   0.01   0.04     0.02  -0.02  -0.01    -0.01   0.02   0.02
     8   6     0.03  -0.05   0.01    -0.01   0.05   0.06     0.01  -0.05  -0.05
     9   6    -0.03   0.07  -0.12     0.02  -0.05  -0.10    -0.01   0.04   0.06
    10   6     0.03   0.07   0.12     0.02   0.05  -0.10     0.01   0.04  -0.06
    11   1     0.31  -0.03   0.10     0.05   0.06  -0.16     0.09   0.05  -0.11
    12   1    -0.03  -0.12  -0.02     0.05   0.22   0.02     0.06  -0.03   0.02
    13   1    -0.06  -0.03  -0.23    -0.14  -0.08   0.12    -0.47  -0.02  -0.02
    14   1     0.06  -0.03   0.23    -0.14   0.08   0.12     0.47  -0.02   0.02
    15   1     0.03  -0.12   0.02     0.05  -0.22   0.02    -0.06  -0.03  -0.02
    16   1     0.00  -0.26  -0.14    -0.01  -0.08   0.04    -0.03  -0.13  -0.02
    17   1    -0.31  -0.03  -0.10     0.05  -0.06  -0.16    -0.09   0.05   0.11
    18   1    -0.00  -0.26   0.14    -0.01   0.08   0.04     0.03  -0.13   0.02
    19   1    -0.08  -0.11   0.19     0.10  -0.32  -0.01    -0.09   0.25   0.03
    20   1     0.25   0.29  -0.05     0.37  -0.19  -0.23    -0.26   0.20   0.18
    21   1     0.08  -0.11  -0.19     0.10   0.32  -0.01     0.09   0.25  -0.03
    22   1    -0.25   0.29   0.05     0.37   0.19  -0.23     0.26   0.20  -0.18
                     28                     29                     30
                      A                      A                      A
 Frequencies --   1037.2775              1081.4292              1085.4543
 Red. masses --      1.5129                 1.7039                 1.1877
 Frc consts  --      0.9591                 1.1740                 0.8245
 IR Inten    --     22.1373                 0.2049                 3.1740
  Atom  AN      X      Y      Z        X      Y      Z        X      Y      Z
     1   6    -0.02  -0.08   0.02    -0.03  -0.09   0.02     0.01   0.02  -0.02
     2   6     0.04  -0.00  -0.07     0.06   0.01  -0.08     0.00  -0.06   0.01
     3   6    -0.05   0.05  -0.00     0.01   0.09   0.01    -0.02   0.03   0.03
     4   6    -0.05  -0.05  -0.00    -0.01   0.09  -0.01    -0.02  -0.03   0.03
     5   6     0.04   0.00  -0.07    -0.06   0.01   0.08     0.00   0.06   0.01
     6   6    -0.03  -0.04  -0.00    -0.02  -0.05   0.01     0.02   0.01  -0.01
     7   6    -0.02   0.08   0.02     0.03  -0.09  -0.02     0.01  -0.02  -0.02
     8   6    -0.03   0.04  -0.00     0.02  -0.05  -0.01     0.02  -0.01  -0.01
     9   6     0.03  -0.04   0.02    -0.00   0.04   0.00    -0.00  -0.01  -0.01
    10   6     0.03   0.04   0.02     0.00   0.04  -0.00    -0.00   0.01  -0.01
    11   1    -0.15  -0.13   0.16    -0.26  -0.19   0.31     0.11   0.07  -0.16
    12   1     0.04   0.05  -0.08     0.05   0.09  -0.10    -0.19  -0.49  -0.05
    13   1     0.27   0.21   0.44     0.01   0.25   0.37    -0.12   0.16   0.29
    14   1     0.27  -0.21   0.44    -0.01   0.25  -0.37    -0.12  -0.16   0.29
    15   1     0.04  -0.05  -0.08    -0.05   0.09   0.10    -0.19   0.49  -0.05
    16   1     0.05  -0.06   0.04     0.03  -0.13  -0.01     0.03  -0.03  -0.05
    17   1    -0.15   0.13   0.16     0.26  -0.19  -0.31     0.11  -0.07  -0.16
    18   1     0.05   0.06   0.04    -0.03  -0.13   0.01     0.03   0.03  -0.05
    19   1    -0.04   0.12   0.01     0.02   0.02  -0.03     0.08  -0.17  -0.06
    20   1     0.02  -0.25  -0.09    -0.05   0.15   0.06     0.01   0.02   0.01
    21   1    -0.04  -0.12   0.01    -0.02   0.02   0.03     0.08   0.17  -0.06
    22   1     0.02   0.25  -0.09     0.05   0.15  -0.06     0.01  -0.02   0.01
                     31                     32                     33
                      A                      A                      A
 Frequencies --   1088.3824              1102.6632              1115.2183
 Red. masses --      1.1341                 1.1643                 1.3712
 Frc consts  --      0.7915                 0.8341                 1.0048
 IR Inten    --      1.6327                 0.8098                 2.6242
  Atom  AN      X      Y      Z        X      Y      Z        X      Y      Z
     1   6    -0.01  -0.01   0.02    -0.03  -0.01   0.03     0.01  -0.06  -0.03
     2   6    -0.00   0.05  -0.01     0.00   0.01  -0.01     0.03   0.01  -0.06
     3   6     0.03  -0.02  -0.02     0.03   0.05   0.01     0.01   0.00  -0.00
     4   6    -0.03  -0.02   0.02     0.03  -0.05   0.01    -0.01   0.00   0.00
     5   6     0.00   0.05   0.01     0.00  -0.01  -0.01    -0.03   0.01   0.06
     6   6    -0.00  -0.01   0.01     0.04  -0.02  -0.01    -0.05  -0.02   0.05
     7   6     0.01  -0.01  -0.02    -0.03   0.01   0.03    -0.01  -0.06   0.03
     8   6     0.00  -0.01  -0.01     0.04   0.02  -0.01     0.05  -0.02  -0.05
     9   6     0.00  -0.02   0.01    -0.01  -0.00  -0.02     0.01   0.02  -0.03
    10   6    -0.00  -0.02  -0.01    -0.01   0.00  -0.02    -0.01   0.02   0.03
    11   1    -0.14  -0.07   0.23    -0.25  -0.10   0.32     0.18   0.01  -0.26
    12   1     0.18   0.43   0.05     0.05   0.04   0.01     0.08   0.16  -0.06
    13   1    -0.10  -0.17  -0.38    -0.29   0.07  -0.04    -0.03  -0.01  -0.06
    14   1     0.10  -0.17   0.38    -0.29  -0.07  -0.04     0.03  -0.01   0.06
    15   1    -0.18   0.43  -0.05     0.05  -0.04   0.01    -0.08   0.16   0.06
    16   1    -0.02  -0.08  -0.05     0.05  -0.30  -0.22    -0.15   0.40   0.32
    17   1     0.14  -0.07  -0.23    -0.25   0.10   0.32    -0.18   0.01   0.26
    18   1     0.02  -0.08   0.05     0.05   0.30  -0.22     0.15   0.40  -0.32
    19   1     0.02  -0.02  -0.03     0.11  -0.24  -0.08     0.11  -0.15  -0.10
    20   1    -0.02  -0.03   0.01     0.01   0.09   0.02     0.03   0.11   0.01
    21   1    -0.02  -0.02   0.03     0.11   0.24  -0.08    -0.11  -0.15   0.10
    22   1     0.02  -0.03  -0.01     0.01  -0.09   0.02    -0.03   0.11  -0.01
                     34                     35                     36
                      A                      A                      A
 Frequencies --   1125.0994              1145.0222              1178.9101
 Red. masses --      1.5836                 1.1618                 1.2577
 Frc consts  --      1.1811                 0.8975                 1.0299
 IR Inten    --      7.3523                 2.9877                 3.0039
  Atom  AN      X      Y      Z        X      Y      Z        X      Y      Z
     1   6     0.01   0.07   0.02    -0.01  -0.02  -0.00     0.00   0.03   0.01
     2   6    -0.05  -0.01   0.07     0.02   0.00  -0.03    -0.00  -0.01   0.03
     3   6    -0.03  -0.04   0.01    -0.01   0.01  -0.03    -0.07  -0.02  -0.05
     4   6    -0.03   0.04   0.01     0.01   0.01   0.03    -0.07   0.02  -0.05
     5   6    -0.05   0.01   0.07    -0.02   0.00   0.03    -0.00   0.01   0.03
     6   6     0.00   0.04  -0.08     0.03  -0.02   0.05     0.02   0.00   0.01
     7   6     0.01  -0.07   0.02     0.01  -0.02   0.00     0.00  -0.03   0.01
     8   6     0.00  -0.04  -0.08    -0.03  -0.02  -0.05     0.02  -0.00   0.01
     9   6     0.04   0.03  -0.03     0.02   0.00  -0.02     0.01   0.03   0.01
    10   6     0.04  -0.03  -0.03    -0.02   0.00   0.02     0.01  -0.03   0.01
    11   1    -0.07   0.04   0.17    -0.01  -0.01  -0.07    -0.02   0.03   0.00
    12   1    -0.09  -0.10   0.07     0.05   0.04  -0.02    -0.00   0.14   0.02
    13   1     0.22  -0.07   0.02     0.00   0.02   0.00     0.44  -0.03   0.07
    14   1     0.22   0.07   0.02    -0.00   0.02  -0.00     0.44   0.03   0.07
    15   1    -0.09   0.10   0.07    -0.05   0.04   0.02    -0.00  -0.14   0.02
    16   1     0.19  -0.31  -0.23    -0.09   0.07   0.04     0.02  -0.06  -0.05
    17   1    -0.07  -0.04   0.17     0.01  -0.01   0.07    -0.02  -0.03   0.00
    18   1     0.19   0.31  -0.23     0.09   0.07  -0.04     0.02   0.06  -0.05
    19   1    -0.13   0.29   0.11    -0.27   0.44   0.25     0.24  -0.27  -0.24
    20   1     0.16  -0.14  -0.14     0.19  -0.27  -0.18    -0.13   0.22   0.12
    21   1    -0.13  -0.29   0.11     0.27   0.44  -0.25     0.24   0.27  -0.24
    22   1     0.16   0.14  -0.14    -0.19  -0.27   0.18    -0.13  -0.22   0.12
                     37                     38                     39
                      A                      A                      A
 Frequencies --   1278.2289              1280.6373              1302.2599
 Red. masses --      1.8420                 1.8847                 1.4757
 Frc consts  --      1.7732                 1.8212                 1.4745
 IR Inten    --      6.5415                 2.5769                 1.0056
  Atom  AN      X      Y      Z        X      Y      Z        X      Y      Z
     1   6    -0.01   0.03   0.03     0.01  -0.04  -0.03    -0.02  -0.03   0.03
     2   6     0.01  -0.03  -0.04    -0.01   0.04   0.04    -0.02  -0.03   0.03
     3   6    -0.03  -0.02   0.04     0.05   0.01  -0.05     0.06  -0.03  -0.08
     4   6    -0.03   0.02   0.04    -0.05   0.01   0.05     0.06   0.03  -0.08
     5   6     0.01   0.03  -0.04     0.01   0.04  -0.04    -0.02   0.03   0.03
     6   6    -0.01  -0.05   0.02     0.02   0.05  -0.02    -0.00   0.08   0.02
     7   6    -0.01  -0.03   0.03    -0.01  -0.04   0.03    -0.02   0.03   0.03
     8   6    -0.01   0.05   0.02    -0.02   0.05   0.02    -0.00  -0.08   0.02
     9   6     0.08  -0.13  -0.08     0.08  -0.12  -0.08    -0.02   0.01   0.01
    10   6     0.08   0.13  -0.08    -0.08  -0.12   0.08    -0.02  -0.01   0.01
    11   1     0.03   0.06  -0.05    -0.02  -0.06   0.03     0.17   0.07  -0.29
    12   1     0.04   0.03  -0.03    -0.05  -0.06   0.03     0.07   0.33   0.04
    13   1    -0.06  -0.03   0.01     0.02   0.04  -0.01    -0.17   0.18   0.32
    14   1    -0.06   0.03   0.01    -0.02   0.04   0.01    -0.17  -0.18   0.32
    15   1     0.04  -0.03  -0.03     0.05  -0.06  -0.03     0.07  -0.33   0.04
    16   1     0.02  -0.14  -0.03    -0.02   0.14   0.01     0.07  -0.21  -0.16
    17   1     0.03  -0.06  -0.05     0.02  -0.06  -0.03     0.17  -0.07  -0.29
    18   1     0.02   0.14  -0.03     0.02   0.14  -0.01     0.07   0.21  -0.16
    19   1    -0.15   0.24   0.12    -0.15   0.24   0.13    -0.05   0.05   0.04
    20   1    -0.28   0.43   0.26    -0.28   0.43   0.25    -0.02   0.03   0.02
    21   1    -0.15  -0.24   0.12     0.15   0.24  -0.13    -0.05  -0.05   0.04
    22   1    -0.28  -0.43   0.26     0.28   0.43  -0.25    -0.02  -0.03   0.02
                     40                     41                     42
                      A                      A                      A
 Frequencies --   1303.8224              1368.9247              1402.4328
 Red. masses --      1.4772                 2.6746                 3.1524
 Frc consts  --      1.4796                 2.9531                 3.6531
 IR Inten    --      0.4894                 7.1035                 3.4722
  Atom  AN      X      Y      Z        X      Y      Z        X      Y      Z
     1   6    -0.02  -0.03   0.03    -0.04  -0.03   0.03    -0.02   0.02   0.03
     2   6    -0.02  -0.03   0.03     0.03   0.17   0.04    -0.00   0.15   0.08
     3   6     0.06  -0.02  -0.08     0.07  -0.12  -0.07     0.04  -0.16  -0.13
     4   6    -0.06  -0.02   0.08    -0.07  -0.12   0.07     0.04   0.16  -0.13
     5   6     0.02  -0.03  -0.03    -0.03   0.17  -0.04    -0.00  -0.15   0.08
     6   6    -0.00   0.07   0.02     0.04  -0.06  -0.06     0.05  -0.09  -0.08
     7   6     0.02  -0.03  -0.03     0.04  -0.03  -0.03    -0.02  -0.02   0.03
     8   6     0.00   0.07  -0.02    -0.04  -0.06   0.06     0.05   0.09  -0.08
     9   6     0.01  -0.00  -0.01     0.02   0.08  -0.02    -0.03  -0.08   0.03
    10   6    -0.01  -0.00   0.01    -0.02   0.08   0.02    -0.03   0.08   0.03
    11   1     0.17   0.06  -0.29    -0.08  -0.05   0.11    -0.14  -0.02   0.19
    12   1     0.07   0.31   0.04    -0.11  -0.35   0.02    -0.08  -0.20   0.09
    13   1    -0.22   0.18   0.29    -0.41   0.01   0.15    -0.19   0.06   0.35
    14   1     0.22   0.18  -0.29     0.41   0.01  -0.15    -0.19  -0.06   0.35
    15   1    -0.07   0.31  -0.04     0.11  -0.35  -0.02    -0.08   0.20   0.09
    16   1     0.07  -0.22  -0.16    -0.04   0.17   0.07    -0.05   0.28   0.14
    17   1    -0.17   0.06   0.29     0.08  -0.05  -0.11    -0.14   0.02   0.19
    18   1    -0.07  -0.22   0.16     0.04   0.17  -0.07    -0.05  -0.28   0.14
    19   1     0.05  -0.05  -0.05     0.08  -0.11   0.01    -0.03   0.05  -0.07
    20   1     0.03  -0.05  -0.03     0.04  -0.10  -0.11    -0.05   0.08   0.11
    21   1    -0.05  -0.05   0.05    -0.08  -0.11  -0.01    -0.03  -0.05  -0.07
    22   1    -0.03  -0.05   0.03    -0.04  -0.10   0.11    -0.05  -0.08   0.11
                     43                     44                     45
                      A                      A                      A
 Frequencies --   1434.1369              1435.6410              1467.1845
 Red. masses --      2.5851                 2.1801                 1.1324
 Frc consts  --      3.1326                 2.6474                 1.4363
 IR Inten    --      9.2186                 4.5238                10.1735
  Atom  AN      X      Y      Z        X      Y      Z        X      Y      Z
     1   6     0.09   0.11  -0.11     0.07   0.11  -0.07     0.01   0.01  -0.01
     2   6    -0.06  -0.15   0.06    -0.06  -0.10   0.07    -0.01  -0.03  -0.00
     3   6     0.04   0.03  -0.03     0.03  -0.01  -0.07     0.00   0.02   0.01
     4   6     0.04  -0.03  -0.03    -0.03  -0.01   0.07     0.00  -0.02   0.01
     5   6    -0.06   0.15   0.06     0.06  -0.10  -0.07    -0.01   0.03  -0.00
     6   6    -0.03  -0.06   0.01     0.00  -0.08  -0.02    -0.01  -0.01   0.00
     7   6     0.09  -0.11  -0.11    -0.07   0.11   0.07     0.01  -0.01  -0.01
     8   6    -0.03   0.06   0.01    -0.00  -0.08   0.02    -0.01   0.01   0.00
     9   6     0.00  -0.01  -0.01    -0.00   0.02   0.00    -0.04  -0.04   0.03
    10   6     0.00   0.00  -0.01     0.00   0.02  -0.00    -0.04   0.04   0.03
    11   1    -0.18  -0.01   0.32    -0.17   0.01   0.30    -0.00   0.01   0.02
    12   1     0.01   0.31   0.07     0.02   0.25   0.10     0.01   0.06  -0.00
    13   1    -0.08   0.15   0.20    -0.11   0.14   0.24    -0.02   0.02  -0.00
    14   1    -0.08  -0.15   0.20     0.11   0.14  -0.24    -0.02  -0.03  -0.00
    15   1     0.01  -0.31   0.07    -0.02   0.25  -0.10     0.01  -0.06  -0.00
    16   1    -0.07   0.18   0.19    -0.08   0.25   0.18    -0.01   0.02   0.02
    17   1    -0.18   0.01   0.32     0.17   0.01  -0.30    -0.00  -0.01   0.02
    18   1    -0.07  -0.18   0.19     0.08   0.25  -0.18    -0.02  -0.02   0.02
    19   1    -0.06  -0.07   0.16     0.03   0.11  -0.14     0.04   0.27  -0.40
    20   1    -0.11  -0.07  -0.01     0.16   0.08  -0.01     0.46   0.22   0.05
    21   1    -0.06   0.07   0.16    -0.04   0.11   0.14     0.04  -0.27  -0.39
    22   1    -0.11   0.07  -0.01    -0.16   0.08   0.01     0.45  -0.21   0.05
                     46                     47                     48
                      A                      A                      A
 Frequencies --   1467.2974              1527.3004              1546.1572
 Red. masses --      1.1461                 3.8459                 4.2094
 Frc consts  --      1.4539                 5.2856                 5.9289
 IR Inten    --      4.0138                 7.0725                 0.7143
  Atom  AN      X      Y      Z        X      Y      Z        X      Y      Z
     1   6     0.01   0.02  -0.00    -0.09   0.09   0.20     0.12  -0.07  -0.23
     2   6    -0.01  -0.03   0.00    -0.01  -0.10  -0.05    -0.02   0.07   0.06
     3   6    -0.00   0.01  -0.01    -0.00   0.05   0.04     0.01  -0.03  -0.04
     4   6     0.00   0.01   0.01    -0.00  -0.05   0.04    -0.01  -0.03   0.04
     5   6     0.01  -0.03  -0.00    -0.01   0.10  -0.05     0.02   0.07  -0.06
     6   6    -0.00  -0.02  -0.01     0.10  -0.11  -0.18    -0.10   0.12   0.20
     7   6    -0.01   0.02   0.00    -0.09  -0.09   0.20    -0.12  -0.07   0.23
     8   6     0.00  -0.02   0.01     0.10   0.11  -0.18     0.10   0.12  -0.20
     9   6     0.04   0.04  -0.03    -0.02   0.01   0.02    -0.01   0.01   0.02
    10   6    -0.04   0.04   0.03    -0.02  -0.01   0.02     0.01   0.01  -0.02
    11   1    -0.01   0.01   0.03     0.14   0.24  -0.19    -0.16  -0.24   0.23
    12   1     0.03   0.09   0.01     0.13   0.28  -0.02    -0.10  -0.23   0.05
    13   1     0.01   0.03   0.03    -0.02   0.02  -0.06    -0.00  -0.01   0.04
    14   1    -0.01   0.03  -0.03    -0.02  -0.02  -0.06     0.00  -0.01  -0.04
    15   1    -0.03   0.08  -0.01     0.13  -0.28  -0.02     0.10  -0.23  -0.05
    16   1    -0.02   0.05   0.04    -0.01   0.30   0.03    -0.01  -0.29  -0.01
    17   1     0.01   0.01  -0.03     0.14  -0.24  -0.19     0.16  -0.24  -0.23
    18   1     0.02   0.05  -0.04    -0.01  -0.30   0.03     0.01  -0.29   0.01
    19   1    -0.04  -0.26   0.40     0.04  -0.12   0.01     0.04  -0.13   0.03
    20   1    -0.44  -0.21  -0.06     0.00  -0.20  -0.08    -0.03  -0.21  -0.07
    21   1     0.04  -0.26  -0.40     0.04   0.12   0.01    -0.04  -0.13  -0.03
    22   1     0.45  -0.22   0.06     0.00   0.20  -0.08     0.03  -0.21   0.07
                     49                     50                     51
                      A                      A                      A
 Frequencies --   2981.8986              2982.0440              3084.4889
 Red. masses --      1.0719                 1.0722                 1.0885
 Frc consts  --      5.6154                 5.6178                 6.1017
 IR Inten    --    109.7509                16.8910                16.5877
  Atom  AN      X      Y      Z        X      Y      Z        X      Y      Z
     1   6     0.00   0.00  -0.00    -0.00  -0.00   0.00    -0.00   0.00  -0.00
     2   6    -0.00  -0.00   0.00     0.00   0.00  -0.00     0.00   0.00  -0.00
     3   6    -0.00  -0.00  -0.00     0.00   0.00  -0.00    -0.00   0.00  -0.00
     4   6    -0.00   0.00  -0.00    -0.00   0.00   0.00     0.00   0.00   0.00
     5   6    -0.00   0.00   0.00    -0.00   0.00   0.00    -0.00   0.00   0.00
     6   6    -0.00   0.00  -0.00     0.00  -0.00   0.00    -0.00  -0.00   0.00
     7   6     0.00  -0.00  -0.00     0.00  -0.00  -0.00     0.00   0.00   0.00
     8   6    -0.00  -0.00  -0.00    -0.00  -0.00  -0.00     0.00  -0.00  -0.00
     9   6    -0.05  -0.02  -0.01    -0.05  -0.02  -0.01     0.01  -0.02   0.05
    10   6    -0.05   0.02  -0.01     0.05  -0.02   0.01    -0.01  -0.02  -0.05
    11   1    -0.00  -0.00  -0.00     0.00   0.00   0.00     0.00  -0.00   0.00
    12   1    -0.00   0.00   0.00     0.00  -0.00   0.00    -0.00   0.00   0.01
    13   1     0.00   0.02  -0.01    -0.00  -0.02   0.01    -0.00  -0.03   0.01
    14   1     0.00  -0.02  -0.01     0.00  -0.02  -0.01     0.00  -0.03  -0.01
    15   1    -0.00  -0.00   0.00    -0.00  -0.00  -0.00     0.00   0.00  -0.01
    16   1    -0.00  -0.00   0.01     0.00   0.00  -0.01     0.01   0.01  -0.02
    17   1    -0.00   0.00  -0.00    -0.00   0.00  -0.00    -0.00  -0.00  -0.00
    18   1    -0.00   0.00   0.01    -0.00   0.00   0.01    -0.01   0.01   0.02
    19   1     0.59   0.23   0.26     0.61   0.24   0.26    -0.08  -0.04  -0.02
    20   1    -0.03   0.04  -0.10    -0.03   0.04  -0.09    -0.11   0.30  -0.62
    21   1     0.61  -0.24   0.26    -0.59   0.23  -0.26     0.08  -0.04   0.02
    22   1    -0.03  -0.04  -0.10     0.03   0.04   0.09     0.11   0.30   0.62
                     52                     53                     54
                      A                      A                      A
 Frequencies --   3085.9415              3146.3314              3153.8110
 Red. masses --      1.0892                 1.0908                 1.0898
 Frc consts  --      6.1114                 6.3621                 6.3863
 IR Inten    --     39.9369                 6.0845                37.7005
  Atom  AN      X      Y      Z        X      Y      Z        X      Y      Z
     1   6    -0.00   0.00  -0.00     0.00   0.00   0.00     0.00   0.00   0.00
     2   6    -0.00  -0.00   0.00     0.00   0.00  -0.00     0.00   0.00  -0.00
     3   6    -0.00  -0.00  -0.00    -0.01  -0.06   0.02    -0.01  -0.06   0.02
     4   6    -0.00   0.00  -0.00    -0.01   0.06   0.02     0.01  -0.06  -0.02
     5   6    -0.00   0.00   0.00     0.00  -0.00  -0.00    -0.00   0.00   0.00
     6   6    -0.00  -0.00   0.00    -0.00  -0.00   0.00    -0.00  -0.00   0.00
     7   6    -0.00  -0.00  -0.00     0.00  -0.00   0.00    -0.00   0.00  -0.00
     8   6    -0.00   0.00   0.00    -0.00   0.00   0.00     0.00  -0.00  -0.00
     9   6    -0.01   0.02  -0.05     0.00   0.00  -0.00    -0.00  -0.00   0.00
    10   6    -0.01  -0.02  -0.05     0.00  -0.00  -0.00     0.00  -0.00  -0.00
    11   1     0.00   0.00   0.00    -0.00  -0.01  -0.00    -0.00  -0.01  -0.00
    12   1     0.00  -0.00  -0.00    -0.03   0.00   0.06    -0.03   0.00   0.07
    13   1     0.00  -0.00   0.00     0.07   0.64  -0.28     0.07   0.63  -0.29
    14   1     0.00   0.00   0.00     0.07  -0.64  -0.28    -0.07   0.63   0.29
    15   1     0.00   0.00  -0.00    -0.03  -0.00   0.06     0.03   0.00  -0.07
    16   1     0.01   0.01  -0.02     0.01   0.01  -0.01     0.01   0.01  -0.01
    17   1     0.00  -0.00   0.00    -0.00   0.01  -0.00     0.00  -0.01   0.00
    18   1     0.01  -0.01  -0.02     0.01  -0.01  -0.01    -0.01   0.01   0.01
    19   1     0.08   0.04   0.02    -0.02  -0.01  -0.01     0.02   0.01   0.00
    20   1     0.11  -0.30   0.62     0.00  -0.00   0.00    -0.00   0.02  -0.04
    21   1     0.08  -0.04   0.02    -0.02   0.01  -0.01    -0.02   0.01  -0.00
    22   1     0.11   0.30   0.62     0.00   0.00   0.00     0.00   0.02   0.04
                     55                     56                     57
                      A                      A                      A
 Frequencies --   3186.0416              3187.6966              3213.4079
 Red. masses --      1.0884                 1.0886                 1.0973
 Frc consts  --      6.5097                 6.5173                 6.6758
 IR Inten    --     12.2171                15.5762                16.7924
  Atom  AN      X      Y      Z        X      Y      Z        X      Y      Z
     1   6    -0.00   0.05   0.02     0.00  -0.05  -0.02    -0.00   0.02   0.01
     2   6     0.00  -0.00  -0.01    -0.00   0.00   0.01     0.01  -0.00  -0.01
     3   6     0.00   0.00  -0.00    -0.00  -0.00   0.00    -0.00   0.00   0.00
     4   6     0.00  -0.00  -0.00     0.00  -0.00  -0.00    -0.00  -0.00   0.00
     5   6     0.00   0.00  -0.01     0.00   0.00  -0.01     0.01   0.00  -0.01
     6   6    -0.01  -0.01   0.01     0.01   0.01  -0.02     0.03   0.03  -0.04
     7   6    -0.00  -0.05   0.02    -0.00  -0.05   0.02    -0.00  -0.02   0.01
     8   6    -0.01   0.01   0.01    -0.01   0.01   0.02     0.03  -0.03  -0.04
     9   6     0.00  -0.00   0.00     0.00  -0.00   0.00     0.00   0.00  -0.00
    10   6     0.00   0.00   0.00    -0.00  -0.00  -0.00     0.00  -0.00  -0.00
    11   1     0.01  -0.61  -0.18    -0.01   0.61   0.18     0.01  -0.22  -0.07
    12   1    -0.05   0.01   0.10     0.05  -0.01  -0.10    -0.07   0.01   0.16
    13   1    -0.00  -0.02   0.01     0.00   0.02  -0.01     0.00  -0.01   0.00
    14   1    -0.00   0.02   0.01    -0.00   0.02   0.01     0.00   0.01   0.00
    15   1    -0.05  -0.01   0.10    -0.05  -0.01   0.10    -0.08  -0.01   0.16
    16   1     0.13   0.15  -0.19    -0.14  -0.16   0.20    -0.31  -0.34   0.43
    17   1     0.01   0.61  -0.18     0.01   0.61  -0.18     0.01   0.23  -0.07
    18   1     0.13  -0.15  -0.19     0.14  -0.16  -0.20    -0.32   0.35   0.44
    19   1     0.00   0.00   0.00    -0.00  -0.00  -0.00    -0.00  -0.00  -0.00
    20   1    -0.00   0.00  -0.01    -0.00   0.01  -0.01     0.00  -0.01   0.02
    21   1     0.00  -0.00   0.00     0.00  -0.00   0.00    -0.00   0.00  -0.00
    22   1    -0.00  -0.00  -0.01     0.00   0.01   0.01     0.00   0.01   0.02
                     58                     59                     60
                      A                      A                      A
 Frequencies --   3213.5577              3231.5221              3232.1905
 Red. masses --      1.0976                 1.0976                 1.0981
[...]
 92,0.00035985,0.00065808,-0.00227490,0.04924595,-0.00106941,0.00555113
 ,-0.00344223,-0.12554589,0.02127178,-0.28812302,-0.00675898,-0.0040919
 8,-0.00598368,0.00026521,-0.00015649,-0.00029988,-0.00079853,0.0006987
 4,-0.00021918,-0.00215901,-0.00024466,-0.00084851,0.00017004,-0.000272
 17,0.00094113,0.00129314,-0.00073988,-0.00129413,-0.00053163,-0.000398
 80,-0.00028846,-0.00059659,0.00110772,-0.00016991,0.00071607,-0.000486
 12,-0.00031983,0.13475446,-0.02357385,0.29978238,0.00463715,0.00033507
 ,0.00138845,-0.00027348,-0.00531264,0.00286061,-0.03661355,-0.01249778
 ,-0.02473140,-0.00918261,0.01348092,0.01386889,-0.00217437,-0.00468008
 ,-0.00068205,-0.00286130,0.00167170,-0.00472597,-0.00093073,0.00120997
 ,-0.00173795,-0.00064208,0.00122542,0.00158579,0.00202951,0.00060678,0
 .00074131,-0.00066215,-0.01936489,-0.00452216,0.00024796,-0.00021290,0
 .00007007,-0.00171841,0.00019710,0.00124165,0.04481589,0.00033732,-0.0
 0394422,0.00198471,-0.00260765,-0.01520854,-0.01399728,-0.02132274,-0.
 28127265,-0.10306972,-0.00079890,-0.00024707,0.00053318,-0.00017647,0.
 00031391,-0.00017381,0.00069824,-0.00033528,0.00085227,-0.00009503,0.0
 0060770,0.00006843,-0.00024244,-0.00021551,0.00048589,0.00007799,-0.00
 008553,-0.00022843,0.00150081,0.00157595,0.00173511,-0.00115469,-0.000
 50635,-0.00032103,-0.00013230,0.00075139,0.00059607,0.02454823,0.29723
 143,-0.00243882,0.00311106,-0.00347558,0.00352540,0.02111197,0.0108799
 5,-0.02399385,-0.11079089,-0.09094733,0.00477606,-0.00894858,-0.008027
 41,0.00144353,0.00198081,0.00040118,-0.00322036,-0.00141864,-0.0022835
 2,0.00007662,-0.00033197,0.00007647,0.00016016,0.00043619,-0.00053048,
 -0.00104292,-0.00019271,0.00018979,0.00476830,-0.01561137,-0.00496159,
 0.00080454,0.00064416,0.00046403,0.00106793,-0.00140807,-0.00025170,0.
 01600015,0.11158229,0.09636115,-0.00093086,-0.00121028,-0.00173806,-0.
 00217426,0.00468004,-0.00068253,-0.00918278,-0.01347958,0.01387052,-0.
 03661397,0.01250028,-0.02473504,-0.00027334,0.00531285,0.00286005,-0.0
 0064222,-0.00122543,0.00158613,0.00463698,-0.00033474,0.00138823,-0.00
 286137,-0.00167203,-0.00472567,-0.00066252,0.01936446,-0.00452428,0.00
 202952,-0.00060671,0.00074139,0.00028129,-0.00011369,-0.00025563,0.000
 17699,-0.00009784,0.00000764,0.00131170,-0.00009318,-0.00044343,0.0448
 1727,0.00009501,0.00060771,-0.00006853,0.00017658,0.00031380,0.0001738
 0,0.00079925,-0.00024641,-0.00053371,0.02132508,-0.28125096,0.10308907
 ,0.00260843,-0.01520917,0.01399990,0.00024247,-0.00021562,-0.00048591,
 -0.00033751,-0.00394473,-0.00198465,-0.00069863,-0.00033521,-0.0008525
 2,-0.00150036,0.00157766,-0.00173582,-0.00007802,-0.00008553,0.0002284
 8,-0.00007183,0.00005602,0.00004797,0.00004733,-0.00000360,-0.00005365
 ,0.00009315,0.00082803,0.00006754,-0.02455165,0.29720844,0.00007668,0.
 00033198,0.00007654,0.00144347,-0.00198094,0.00040143,0.00477632,0.008
 94808,-0.00802871,-0.02399860,0.11081033,-0.09096863,0.00352550,-0.021
 10931,0.01088051,0.00016020,-0.00043622,-0.00053051,-0.00243886,-0.003
 11104,-0.00347492,-0.00322023,0.00141824,-0.00228350,0.00476803,0.0156
 1069,-0.00496306,-0.00104303,0.00019275,0.00018979,-0.00014119,0.00000
 210,0.00009724,-0.00013368,0.00007217,0.00006761,-0.00044347,-0.000067
 67,-0.00016464,0.01600503,-0.11160273,0.09638376,-0.00096547,-0.000922
 07,-0.00270848,0.00183449,0.00228050,0.00091195,-0.00134560,-0.0009946
 4,0.00178806,0.00283174,0.00078289,0.00066177,-0.08267988,-0.00166989,
 -0.12604383,-0.00319789,-0.00091089,0.00417856,-0.00464444,-0.00373563
 ,-0.01135402,0.00127411,0.00333794,-0.00048461,0.00244650,-0.00005681,
 -0.00214865,0.00027383,-0.00045048,-0.00002945,-0.00000280,-0.00000293
 ,-0.00007140,-0.00029381,0.00011487,0.00004553,0.00017701,-0.00004733,
 -0.00013369,-0.00171842,0.00013238,0.00106794,0.08700370,-0.00002721,-
 0.00013710,-0.00056767,0.00069724,-0.00011133,0.00055860,-0.00037944,-
 0.00035861,-0.00036376,-0.01215424,0.00525876,-0.01946129,0.00029966,-
 0.05678870,-0.02340405,-0.00072011,-0.00025638,0.00092247,0.00647166,0
 .00830827,0.01948081,0.00256173,-0.00368898,0.00283383,0.00149955,-0.0
 0363901,-0.00353032,0.00040231,0.00004803,-0.00041373,0.00003042,0.000
 00403,0.00000778,-0.00011487,-0.00000681,0.00001774,0.00009787,-0.0000
 0361,-0.00007218,-0.00019702,0.00075150,0.00140799,0.00228855,0.049250
 70,0.00017008,0.00027229,0.00094131,-0.00079858,-0.00069886,-0.0002192
 6,0.00026537,0.00015654,-0.00029998,-0.00675775,0.00409091,-0.00598182
 ,-0.12554485,-0.02129662,-0.28811911,0.00129341,0.00073992,-0.00129453
 ,-0.00106948,-0.00555227,-0.00344322,-0.00215915,0.00024480,-0.0008489
 5,-0.00059670,-0.00110728,-0.00016939,-0.00053173,0.00039875,-0.000288
 44,0.00001098,-0.00001318,0.00001426,0.00004556,-0.00001774,0.00006146
 ,0.00000762,0.00005365,0.00006762,0.00124167,-0.00059615,-0.00025178,0
 .13475219,0.02360047,0.29977785,-0.00090427,-0.00689717,-0.00406036,0.
 00305811,0.00033420,-0.00486787,-0.00087005,-0.00022527,-0.00100925,0.
 00030809,0.00009621,0.00028391,-0.00014600,0.00012729,-0.00043127,-0.1
 0411932,-0.07917523,-0.11183621,0.00046844,-0.00043259,0.00036698,-0.0
 0007136,-0.00000968,-0.00045095,0.00018919,0.00042187,0.00013773,0.002
 19564,0.00294273,0.00401256,-0.00284876,0.00069779,0.00193519,0.000371
 86,-0.00109333,-0.00035500,0.00077566,-0.00011513,-0.00095181,-0.00003
 761,-0.00008380,-0.00005870,0.00001494,-0.00014085,0.00018237,0.101910
 20,0.00695166,0.01029016,0.00877130,0.00057828,-0.00075661,0.00293506,
 0.00128446,-0.00567148,0.00008004,0.00042272,-0.00009014,-0.00023706,0
 .00015250,-0.00004049,-0.00012732,-0.07845461,-0.14127051,-0.10755441,
 -0.00009875,0.00018576,-0.00001601,-0.00016768,-0.00005766,0.00020675,
 -0.00001557,0.00011986,-0.00003704,-0.01399382,-0.00460003,-0.01761227
 ,-0.00009494,0.00025116,-0.00112840,0.00014383,0.00084512,0.00027462,-
 0.00147718,0.00008989,-0.00094310,0.00004251,0.00004893,-0.00005993,-0
 .00010045,-0.00001671,0.00012369,0.08425809,0.14015058,-0.01025588,-0.
 01765988,-0.00828702,-0.00350079,0.00233413,-0.00200049,0.00059987,0.0
 0207296,0.00029554,0.00004373,-0.00002381,-0.00023171,-0.00000577,0.00
 008295,0.00052439,-0.10797608,-0.10352232,-0.18253495,-0.00023963,0.00
 012353,-0.00022981,0.00008020,0.00013251,0.00026311,-0.00008003,-0.000
 24311,-0.00004712,0.00273473,0.00310322,0.00245469,0.00220069,0.000144
 70,-0.00047420,-0.00080853,-0.00070239,-0.00018030,-0.00026504,0.00003
 641,0.00094634,-0.00001413,0.00004948,0.00007205,-0.00009147,0.0000189
 8,0.00003893,0.11766818,0.11492806,0.18892390,0.00017754,-0.00007456,0
 .00023423,-0.00009516,-0.00008930,0.00014076,0.00003652,-0.00092954,-0
 .00045080,0.00259288,0.00303314,-0.00437599,0.00192060,0.01314125,0.00
 593375,0.00041347,-0.00003119,-0.00046973,-0.04214178,-0.00380322,-0.0
 0839254,0.00322575,-0.01296619,-0.00273827,0.00530705,0.00018756,-0.00
 639126,0.00000802,0.00002629,0.00001340,-0.00013485,-0.00004752,0.0001
 1495,-0.00000280,-0.00003042,0.00001099,0.00028127,0.00007181,-0.00014
 118,0.00024795,0.00115477,0.00080443,-0.00142941,-0.00089885,0.0007160
 4,-0.00009571,0.00001581,0.00001767,0.03251796,-0.00015043,-0.00019578
 ,-0.00016943,-0.00007669,0.00025624,-0.00036091,-0.00038739,-0.0001685
 6,0.00038938,0.00134715,-0.00259463,0.00133042,-0.00365714,-0.01119738
 ,-0.00976177,-0.00011764,0.00028900,0.00041544,-0.00120860,-0.31556148
 ,-0.07798621,0.00175315,-0.00372575,0.00155231,0.00135013,0.00030541,-
 0.00145607,0.00005539,-0.00007091,-0.00004987,0.00004752,0.00016369,-0
 .00008043,0.00000291,0.00000403,0.00001319,0.00011368,0.00005602,-0.00
 000211,0.00021291,-0.00050635,-0.00064404,-0.00005101,0.00035980,0.000
 48606,0.00012779,0.00000474,-0.00002211,0.00162058,0.33269406,0.000009
 19,-0.00007573,0.00010536,0.00011601,-0.00019557,0.00003858,0.00047097
 ,0.00067061,-0.00019070,-0.00410379,0.00267342,-0.00010035,0.00178987,
 0.01347443,0.00931586,-0.00004341,0.00006664,0.00025628,-0.00958044,-0
 .07592375,-0.07847199,0.00080106,-0.02475936,0.00185372,-0.00452897,-0
 .00162597,-0.00187468,-0.00000586,0.00000146,-0.00006700,0.00011494,0.
 00008041,-0.00006256,-0.00007139,-0.00000778,0.00001426,-0.00025563,-0
 .00004797,0.00009724,0.00007005,0.00032111,0.00046405,0.00118711,-0.00
 065812,-0.00031980,-0.00000819,-0.00002378,-0.00000990,0.01219416,0.08
 644646,0.06963605,0.00046838,0.00043257,0.00036688,-0.00014592,-0.0001
 2737,-0.00043111,0.00030814,-0.00009617,0.00028392,-0.00086981,0.00022
 528,-0.00100919,0.00305812,-0.00033483,-0.00486802,-0.00007134,0.00000
 964,-0.00045085,-0.00090462,0.00689717,-0.00406144,-0.10412813,0.07916
 712,-0.11184745,0.00219534,-0.00294210,0.00401215,0.00018924,-0.000421
 89,0.00013773,-0.00009570,-0.00012778,-0.00000817,0.00001492,0.0001408
 5,0.00018233,-0.00003761,0.00008378,-0.00005870,0.00077554,0.00011503,
 -0.00095181,0.00037175,0.00109336,-0.00035512,0.00002016,0.00001661,-0
 .00001005,-0.00284872,-0.00069769,0.00193535,0.10191946,0.00009874,0.0
 0018575,0.00001598,-0.00015246,-0.00004051,0.00012738,-0.00042267,-0.0
 0009010,0.00023703,-0.00128428,-0.00567166,-0.00007947,-0.00057862,-0.
 00075722,-0.00293528,0.00016771,-0.00005768,-0.00020673,-0.00695312,0.
 01029103,-0.00877316,0.07844721,-0.14124576,0.10754537,0.01399447,-0.0
 0459833,0.01761289,0.00001556,0.00011987,0.00003703,-0.00001581,0.0000
 0474,0.00002378,0.00010042,-0.00001672,-0.00012365,-0.00004252,0.00004
 893,0.00005993,0.00147719,0.00009002,0.00094312,-0.00014392,0.00084519
 ,-0.00027473,-0.00001661,0.00002364,0.00000530,0.00009509,0.00025124,0
 .00112838,-0.08424984,0.14012369,-0.00023961,-0.00012356,-0.00022978,-
 0.00000582,-0.00008283,0.00052431,0.00004373,0.00002380,-0.00023176,0.
 00059998,-0.00207240,0.00029572,-0.00350084,-0.00233420,-0.00199969,0.
 00008018,-0.00013248,0.00026309,-0.01025575,0.01765755,-0.00828755,-0.
 10798765,0.10351333,-0.18255036,0.00273352,-0.00310245,0.00245326,-0.0
 0008006,0.00024314,-0.00004713,0.00001767,0.00002211,-0.00000991,-0.00
 009146,-0.00001898,0.00003892,-0.00001413,-0.00004947,0.00007204,-0.00
 026516,-0.00003632,0.00094627,-0.00080856,0.00070219,-0.00018029,-0.00
 001005,-0.00000530,0.00000920,0.00220078,-0.00014470,-0.00047442,0.117
 68088,-0.11491801,0.18894073,-0.00063340,-0.00001214,-0.00054027,-0.00
 023162,0.00194473,-0.00119626,-0.00309235,-0.00159805,0.00032582,-0.01
 939894,-0.00828288,0.00605686,0.00003074,0.00203392,-0.00010966,-0.000
 64421,-0.00012014,0.00004959,0.00065424,0.00053021,0.00101022,0.003086
 81,-0.00133965,-0.00104537,-0.22408286,-0.07133098,0.07852410,-0.00034
 718,-0.00067639,0.00043955,-0.00000997,-0.00009946,-0.00000868,0.00021
 656,-0.00002879,-0.00004166,0.00037267,0.00004104,-0.00018759,0.000793
 35,0.00060256,-0.00003410,0.00012843,-0.00006559,-0.00030095,0.0000554
 8,-0.00003383,-0.00007897,-0.00020752,-0.00015424,0.00003877,-0.000321
 14,-0.00057552,-0.00008125,0.24840005,-0.00028260,0.00016328,-0.000382
 51,-0.00041035,-0.00008028,0.00030709,0.00101633,0.00018291,0.00110625
 ,0.00749429,0.00232404,-0.00202598,-0.00027362,-0.00015606,0.00101066,
 0.00000187,-0.00038539,-0.00021666,0.00172748,-0.00261101,0.00214873,-
 0.02748021,-0.01710679,0.00682157,-0.07656373,-0.06649192,0.02952669,0
 .00043581,0.00004564,-0.00015169,0.00003747,0.00000584,-0.00000098,0.0
 0012283,-0.00005174,0.00007893,-0.00017416,0.00015159,0.00019499,-0.00
 022336,0.00019691,-0.00027816,-0.00009344,-0.00000337,-0.00000353,-0.0
 0011532,0.00004109,0.00006804,0.00148901,0.00014075,-0.00108718,0.0008
 8935,-0.00014543,-0.00003735,0.08077258,0.07855792,-0.00066897,-0.0007
 9210,-0.00153852,0.00108449,0.00192204,-0.00030219,-0.00164068,-0.0006
 8834,0.00053516,-0.01609469,-0.00753121,0.00395799,0.00109700,-0.00173
 286,0.00114195,-0.00100118,-0.00034646,0.00151920,-0.00303437,0.001201
 05,-0.00278367,0.00194569,0.00401594,0.00039607,0.07826534,0.02655867,
 -0.07504235,0.00026975,-0.00022961,-0.00015306,0.00004810,0.00000043,-
 0.00006299,-0.00033914,0.00007920,0.00042404,0.00000215,0.00015706,0.0
 0008140,0.00069127,0.00029465,0.00082518,0.00033466,0.00009276,-0.0003
 7411,-0.00009061,0.00000337,0.00007355,0.00031519,0.00002183,-0.000247
 27,-0.00020808,0.00040323,0.00022471,-0.08538564,-0.03276537,0.0819844
 6,0.00025667,-0.00001688,0.00036992,-0.00067994,-0.00069497,-0.0000835
 1,-0.00009901,-0.00063227,-0.00218127,0.00182052,-0.01210847,-0.017360
 60,-0.00348310,0.00221205,-0.00407942,0.00036152,0.00029425,-0.0001608
 6,0.00180803,-0.00007088,0.00070420,-0.00230173,-0.00258957,0.00093375
 ,-0.05056044,0.02282315,0.03905631,-0.00022893,0.00026158,0.00018743,0
 .00000812,0.00004307,0.00003678,-0.00025381,-0.00037339,0.00004780,-0.
 00021352,0.00033518,-0.00011042,-0.00013238,0.00030601,0.00013406,-0.0
 0004150,-0.00114635,-0.00057709,0.00010715,0.00000214,-0.00003255,0.00
 022880,-0.00018677,-0.00015787,-0.00006068,0.00000727,0.00009511,-0.00
 468281,0.01144195,0.02446039,0.05814337,-0.00038119,-0.00019200,-0.000
 55882,0.00004871,0.00012924,-0.00032383,-0.00003660,0.00048261,0.00067
 124,-0.00245233,0.00332799,0.00695422,0.00245256,-0.00060480,0.0008053
 6,-0.00014376,-0.00030389,0.00032299,0.00068735,-0.00602309,-0.0000962
 3,0.00332334,-0.00949214,-0.02902984,0.02016281,-0.09405933,-0.0996334
 2,0.00014165,-0.00006499,-0.00003278,0.00002191,-0.00000099,-0.0000123
 2,-0.00031190,-0.00018759,0.00043271,-0.00008247,0.00004490,0.00012868
 ,-0.00004130,-0.00007786,-0.00012377,0.00005332,0.00042377,-0.00009521
 ,-0.00006144,0.00001275,0.00006408,-0.00190514,-0.00050898,-0.00047099
 ,-0.00024979,0.00058547,0.00102804,-0.00145366,0.00500232,0.00950763,-
 0.01982254,0.10139892,0.00004749,-0.00027563,-0.00041872,0.00063249,0.
 00059452,0.00098925,0.00190474,-0.00011794,-0.00072306,0.00444531,-0.0
 0819844,-0.01346042,-0.00205513,-0.00030457,-0.00237598,0.00043483,-0.
 00022013,0.00062101,0.00007127,0.00150403,-0.00149014,-0.00085760,0.00
 192404,0.00527270,0.03562912,-0.10055264,-0.25432113,0.00024140,0.0005
 7636,-0.00017036,0.00006047,0.00001481,-0.00004885,-0.00011456,0.00010
 761,0.00046916,-0.00060340,0.00044119,0.00053217,-0.00047678,0.0002762
 3,-0.00035235,-0.00059987,-0.00098579,-0.00000393,-0.00019865,0.000054
 32,0.00013324,0.00015486,0.00003782,0.00014910,-0.00004998,-0.00077068
 ,0.00003580,0.00276122,-0.00447790,-0.01050971,-0.04134109,0.11041377,
 0.27564190,0.00065439,-0.00052999,0.00101042,0.00003078,-0.00203398,-0
 .00010946,-0.01939905,0.00828273,0.00605590,-0.00309244,0.00159810,0.0
 0032572,-0.00023167,-0.00194486,-0.00119611,0.00308579,0.00134009,-0.0
 0104521,-0.00063341,0.00001203,-0.00054021,-0.00064416,0.00012011,0.00
 004951,-0.00034720,0.00067642,0.00043953,-0.22408743,0.07133304,0.0785
 1772,-0.00020748,0.00015423,0.00003871,0.00012844,0.00006555,-0.000300
 97,0.00079333,-0.00060255,-0.00003406,0.00037270,-0.00004105,-0.000187
 61,0.00021658,0.00002879,-0.00004167,-0.00032112,0.00057550,-0.0000813
 2,-0.00000997,0.00009946,-0.00000869,0.00005549,0.00003383,-0.00007899
 ,-0.00005673,0.00014100,-0.00004268,-0.00002960,0.00001270,-0.00015306
 ,0.24840535,-0.00172753,-0.00261126,-0.00214877,0.00027371,-0.00015598
 ,-0.00101051,-0.00749647,0.00232490,0.00202624,-0.00101654,0.00018282,
 -0.00110629,0.00041050,-0.00008057,-0.00030709,0.02748078,-0.01710685,
 -0.00681976,0.00028258,0.00016341,0.00038233,-0.00000194,-0.00038537,0
 .00021682,-0.00043581,0.00004569,0.00015170,0.07656569,-0.06649216,-0.
 02952426,-0.00148897,0.00014082,0.00108703,0.00009347,-0.00000338,0.00
 000349,0.00022344,0.00019687,0.00027821,0.00017416,0.00015157,-0.00019
 502,-0.00012287,-0.00005176,-0.00007888,-0.00088935,-0.00014549,0.0000
 3736,-0.00003747,0.00000584,0.00000098,0.00011530,0.00004109,-0.000068
 04,-0.00014102,0.00015893,-0.00014812,-0.00004681,0.00006079,-0.000016
 29,-0.08077478,0.07855860,-0.00303421,-0.00120114,-0.00278343,0.001096
 74,0.00173317,0.00114191,-0.01609429,0.00753080,0.00395704,-0.00164062
 ,0.00068839,0.00053516,0.00108447,-0.00192208,-0.00030198,0.00194341,-
 0.00401450,0.00039700,-0.00066898,0.00079192,-0.00153857,-0.00100108,0
 .00034655,0.00151908,0.00026975,0.00022960,-0.00015308,0.07825846,-0.0
 2655622,-0.07503654,0.00031533,-0.00002187,-0.00024735,0.00033469,-0.0
 0009282,-0.00037411,0.00069126,-0.00029459,0.00082515,0.00000214,-0.00
 015708,0.00008144,-0.00033915,-0.00007917,0.00042406,-0.00020798,-0.00
 040320,0.00022474,0.00004810,-0.00000044,-0.00006299,-0.00009062,-0.00
 000337,0.00007356,-0.00004267,0.00014809,-0.00011144,-0.00000799,0.000
 02377,-0.00003843,-0.08537841,0.03276236,0.08197781,0.00180809,0.00007
 119,0.00070419,-0.00348290,-0.00221253,-0.00407915,0.00182024,0.012106
 92,-0.01736135,-0.00009908,0.00063205,-0.00218131,-0.00067993,0.000694
 96,-0.00008359,-0.00230177,0.00258987,0.00093257,0.00025665,0.00001690
 ,0.00036988,0.00036150,-0.00029424,-0.00016080,-0.00022891,-0.00026156
 ,0.00018746,-0.05055989,-0.02281875,0.03905642,0.00022875,0.00018677,-
 0.00015790,-0.00004148,0.00114626,-0.00057722,-0.00013234,-0.00030600,
 0.00013414,-0.00021357,-0.00033520,-0.00011040,-0.00025385,0.00037340,
 0.00004778,-0.00006071,-0.00000729,0.00009515,0.00000813,-0.00004307,0
 .00003678,0.00010714,-0.00000214,-0.00003255,-0.00002960,0.00004681,-0
 .00000799,0.00003326,0.00003776,0.00006692,-0.00468257,-0.01144008,0.0
 2446164,0.05814286,-0.00068709,-0.00602332,0.00009675,-0.00245282,-0.0
 0060497,-0.00080571,0.00245279,0.00332857,-0.00695632,0.00003674,0.000
 48251,-0.00067139,-0.00004873,0.00012915,0.00032397,-0.00332330,-0.009
 48952,0.02903109,0.00038125,-0.00019190,0.00055875,0.00014379,-0.00030
 391,-0.00032291,-0.00014161,-0.00006504,0.00003278,-0.02015868,-0.0940
 4279,0.09961963,0.00190511,-0.00050888,0.00047117,-0.00005340,0.000423
 91,0.00009514,0.00004128,-0.00007787,0.00012377,0.00008239,0.00004487,
 -0.00012864,0.00031189,-0.00018766,-0.00043262,0.00024978,0.00058546,-
 0.00102807,-0.00002190,-0.00000099,0.00001231,0.00006141,0.00001274,-0
 .00006406,-0.00001272,0.00006079,-0.00002377,-0.00003776,0.00004692,-0
 .00002470,0.00145361,0.00500151,-0.00950820,0.01981796,0.10138042,0.00
 007140,-0.00150358,-0.00148999,-0.00205504,0.00030433,-0.00237600,0.00
 444513,0.00819723,-0.01346064,0.00190469,0.00011791,-0.00072299,0.0006
 3252,-0.00059447,0.00098928,-0.00085723,-0.00192279,0.00527018,0.00004
 748,0.00027562,-0.00041881,0.00043481,0.00022020,0.00062098,0.00024140
 ,-0.00057637,-0.00017031,0.03562885,0.10053889,-0.25433833,0.00015466,
 -0.00003776,0.00014909,-0.00059986,0.00098576,-0.00000405,-0.00047675,
 -0.00027629,-0.00035230,-0.00060339,-0.00044117,0.00053223,-0.00011459
 ,-0.00010754,0.00046912,-0.00005003,0.00077063,0.00003583,0.00006046,-
 0.00001482,-0.00004884,-0.00019865,-0.00005432,0.00013326,-0.00015306,
 0.00001628,-0.00003842,0.00006693,0.00002471,0.00006875,0.00276091,0.0
 0447650,-0.01050902,-0.04134065,-0.11039895,0.27566099\\-0.00005769,-0
 .00009801,-0.00025395,-0.00049366,0.00032239,0.00015260,-0.00161057,-0
 .00008357,0.00131353,0.00161112,-0.00008405,-0.00131444,0.00049339,0.0
 0032252,-0.00015162,-0.00038311,-0.00008211,0.00018085,0.00005735,-0.0
 0009792,0.00025389,0.00038330,-0.00008137,-0.00018094,0.00018706,-0.00
 008637,-0.00014140,-0.00018693,-0.00008682,0.00014199,0.00004257,-0.00
 001487,-0.00004139,0.00001087,-0.00000745,-0.00001189,0.00001820,0.000
 06384,0.00002577,-0.00001839,0.00006374,-0.00002543,-0.00001096,-0.000
 00743,0.00001122,-0.00002347,0.00000500,0.00000736,-0.00004270,-0.0000
 1527,0.00004126,0.00002375,0.00000478,-0.00000737,0.00005805,-0.000013
 37,0.00005664,-0.00004501,-0.00000529,-0.00002594,-0.00005819,-0.00001
 317,-0.00005640,0.00004502,-0.00000519,0.00002568\\\@


 ERROR IS THE FORCE THAT WELDS MEN TOGETHER....
 TRUTH IS COMMUNICATED TO MEN ONLY BY DEEDS OF TRUTH.
           TOLSTOI,MY RELIGION
 Job cpu time:       0 days  1 hours  3 minutes 58.6 seconds.
 Elapsed time:       0 days  0 hours  0 minutes 41.0 seconds.
 File lengths (MBytes):  RWF=    181 Int=      0 D2E=      0 Chk=     10 Scr=      1
 Normal termination of Gaussian 16 at Mon Jul 28 00:15:15 2025.
