 Entering Gaussian System, Link 0=g16
 Initial command:
 /home/hongchang/data/software/Gaussian/g16/l1.exe "/home/hongchang/data/software/Gaussian/g16/scratch/Gau-1405711.inp" -scrdir="/home/hongchang/data/software/Gaussian/g16/scratch/"
 Entering Link 1 = /home/hongchang/data/software/Gaussian/g16/l1.exe PID=   1405712.
  
 Copyright (c) 1988,1990,1992,1993,1995,1998,2003,2009,2016,
            Gaussian, Inc.  All Rights Reserved.
  
 This is part of the Gaussian(R) 16 program.  It is based on
 the Gaussian(R) 09 system (copyright 2009, Gaussian, Inc.),
 the Gaussian(R) 03 system (copyright 2003, Gaussian, Inc.),
 the Gaussian(R) 98 system (copyright 1998, Gaussian, Inc.),
 the Gaussian(R) 94 system (copyright 1995, Gaussian, Inc.),
 the Gaussian 92(TM) system (copyright 1992, Gaussian, Inc.),
 the Gaussian 90(TM) system (copyright 1990, Gaussian, Inc.),
 the Gaussian 88(TM) system (copyright 1988, Gaussian, Inc.),
 the Gaussian 86(TM) system (copyright 1986, Carnegie Mellon
 University), and the Gaussian 82(TM) system (copyright 1983,
 Carnegie Mellon University). Gaussian is a federally registered
 trademark of Gaussian, Inc.
  
 This software contains proprietary and confidential information,
 including trade secrets, belonging to Gaussian, Inc.
  
 This software is provided under written license and may be
 used, copied, transmitted, or stored only in accord with that
 written license.
  
 The following legend is applicable only to US Government
 contracts under FAR:
  
                    RESTRICTED RIGHTS LEGEND
  
 Use, reproduction and disclosure by the US Government is
 subject to restrictions as set forth in subparagraphs (a)
 and (c) of the Commercial Computer Software - Restricted
 Rights clause in FAR 52.227-19.
  
 Gaussian, Inc.
 340 Quinnipiac St., Bldg. 40, Wallingford CT 06492
  
  
 ---------------------------------------------------------------
 Warning -- This program may not be used in any manner that
 competes with the business of Gaussian, Inc. or will provide
 assistance to any competitor of Gaussian, Inc.  The licensee
 of this program is prohibited from giving any competitor of
 Gaussian, Inc. access to this program.  By using this program,
 the user acknowledges that Gaussian, Inc. is engaged in the
 business of creating and licensing software in the field of
 computational chemistry and represents and warrants to the
 licensee that it is not a competitor of Gaussian, Inc. and that
 it will not use this program in any manner prohibited above.
 ---------------------------------------------------------------
  

 Cite this work as:
 Gaussian 16, Revision A.03,
 M. J. Frisch, G. W. Trucks, H. B. Schlegel, G. E. Scuseria, 
 M. A. Robb, J. R. Cheeseman, G. Scalmani, V. Barone, 
 G. A. Petersson, H. Nakatsuji, X. Li, M. Caricato, A. V. Marenich, 
 J. Bloino, B. G. Janesko, R. Gomperts, B. Mennucci, H. P. Hratchian, 
 J. V. Ortiz, A. F. Izmaylov, J. L. Sonnenberg, D. Williams-Young, 
 F. Ding, F. Lipparini, F. Egidi, J. Goings, B. Peng, A. Petrone, 
 T. Henderson, D. Ranasinghe, V. G. Zakrzewski, J. Gao, N. Rega, 
 G. Zheng, W. Liang, M. Hada, M. Ehara, K. Toyota, R. Fukuda, 
 J. Hasegawa, M. Ishida, T. Nakajima, Y. Honda, O. Kitao, H. Nakai, 
 T. Vreven, K. Throssell, J. A. Montgomery, Jr., J. E. Peralta, 
 F. Ogliaro, M. J. Bearpark, J. J. Heyd, E. N. Brothers, K. N. Kudin, 
 V. N. Staroverov, T. A. Keith, R. Kobayashi, J. Normand, 
 K. Raghavachari, A. P. Rendell, J. C. Burant, S. S. Iyengar, 
 J. Tomasi, M. Cossi, J. M. Millam, M. Klene, C. Adamo, R. Cammi, 
 J. W. Ochterski, R. L. Martin, K. Morokuma, O. Farkas, 
 J. B. Foresman, and D. J. Fox, Gaussian, Inc., Wallingford CT, 2016.
 
 ******************************************
 Gaussian 16:  ES64L-G16RevA.03 25-Dec-2016
                28-Jul-2025 
 ******************************************
 %nprocshared=96
 Will use up to   96 processors via shared memory.
 %mem=600GB
 %chk=01_02_path2_9.chk
 -----------------------------------------------------------
 # freq b3lyp/6-311g(d,p) em=gd3bj scrf(solvent=Cis-Decalin)
 -----------------------------------------------------------
 1/10=4,30=1,38=1/1,3;
 2/12=2,17=6,18=5,40=1/2;
 3/5=4,6=6,7=101,11=2,25=1,30=1,70=2201,71=2,72=99,74=-5,124=41,140=1/1,2,3;
 4//1;
 5/5=2,38=5,53=99,98=1/2;
 8/6=4,10=90,11=11/1;
 11/6=1,8=1,9=11,15=111,16=1/1,2,10;
 10/6=1/2;
 6/7=2,8=2,9=2,10=2,28=1/1;
 7/8=1,10=1,25=1/1,2,3,16;
 1/10=4,30=1/3;
 99//99;
 -------------
 01_02_path2_9
 -------------
 Symbolic Z-matrix:
 Charge =  0 Multiplicity = 1
 C                    -1.35502  -1.15229   0.67984 
 C                    -0.68257  -0.12171   1.34773 
 C                    -0.69139   1.06803   0.48339 
 C                     0.69136   1.06799  -0.48349 
 C                     0.68255  -0.12185  -1.34771 
 C                    -1.88155  -0.68556  -0.50657 
 C                     1.35504  -1.15234  -0.67972 
 C                     1.88159  -0.68548   0.50663 
 C                     1.8617    0.81714   0.48255 
 C                    -1.86171   0.81706  -0.48264 
 H                    -1.37631  -2.18491   1.00538 
 H                    -0.25616  -0.17441   2.33757 
 H                    -0.6855    2.03109   0.99201 
 H                     0.68546   2.03099  -0.99221 
 H                     0.25615  -0.17465  -2.33754 
 H                    -2.41702  -1.27644  -1.23726 
 H                     1.37635  -2.185    -1.00516 
 H                     2.41709  -1.27628   1.23736 
 H                     2.79305   1.19937   0.04071 
 H                     1.73614   1.29265   1.4573 
 H                    -2.79307   1.19931  -0.04084 
 H                    -1.73615   1.29249  -1.45743 
 

 GradGradGradGradGradGradGradGradGradGradGradGradGradGradGradGradGradGrad
 Berny optimization.
 Initialization pass.
 Trust Radius=3.00D-01 FncErr=1.00D-07 GrdErr=1.00D-07 EigMax=2.50D+02 EigMin=1.00D-04
 Number of steps in this run=      2 maximum allowed number of steps=      2.
 GradGradGradGradGradGradGradGradGradGradGradGradGradGradGradGradGradGrad

                          Input orientation:                          
 ---------------------------------------------------------------------
 Center     Atomic      Atomic             Coordinates (Angstroms)
 Number     Number       Type             X           Y           Z
 ---------------------------------------------------------------------
      1          6           0       -1.355020   -1.152290    0.679839
      2          6           0       -0.682571   -0.121711    1.347732
      3          6           0       -0.691390    1.068032    0.483394
      4          6           0        0.691363    1.067987   -0.483492
      5          6           0        0.682548   -0.121847   -1.347707
      6          6           0       -1.881552   -0.685556   -0.506574
      7          6           0        1.355041   -1.152343   -0.679722
      8          6           0        1.881592   -0.685478    0.506625
      9          6           0        1.861695    0.817136    0.482551
     10          6           0       -1.861706    0.817061   -0.482637
     11          1           0       -1.376310   -2.184910    1.005381
     12          1           0       -0.256163   -0.174412    2.337565
     13          1           0       -0.685497    2.031090    0.992010
     14          1           0        0.685455    2.030990   -0.992211
     15          1           0        0.256151   -0.174648   -2.337539
     16          1           0       -2.417021   -1.276440   -1.237257
     17          1           0        1.376350   -2.184996   -1.005161
     18          1           0        2.417087   -1.276277    1.237359
     19          1           0        2.793048    1.199370    0.040713
     20          1           0        1.736136    1.292653    1.457299
     21          1           0       -2.793074    1.199305   -0.040840
     22          1           0       -1.736153    1.292494   -1.457427
 ---------------------------------------------------------------------
                    Distance matrix (angstroms):
                    1          2          3          4          5
     1  C    0.000000
     2  C    1.400129   0.000000
     3  C    2.325688   1.470594   0.000000
     4  C    3.235839   2.580011   1.687268   0.000000
     5  C    3.053594   3.021414   2.580009   1.470595   0.000000
     6  C    1.379367   2.279019   2.339144   3.113734   2.756788
     7  C    3.031969   3.053626   3.235859   2.325691   1.400133
     8  C    3.274687   2.756851   3.113772   2.339149   2.279020
     9  C    3.776879   2.846623   2.565384   1.538129   2.371059
    10  C    2.342312   2.371055   1.538129   2.565371   2.846598
    11  H    1.082929   2.203467   3.364999   4.131991   3.745951
    12  H    2.216255   1.079060   2.273992   3.224860   3.803311
    13  H    3.267969   2.181994   1.089131   2.236161   3.461352
    14  H    4.134315   3.461351   2.236158   1.089130   2.181993
    15  H    3.557559   3.803317   3.224864   2.273992   1.079060
    16  H    2.195112   3.320223   3.381566   3.965672   3.309473
    17  H    3.371363   3.745985   4.132014   3.365003   2.203471
    18  H    3.815101   3.309544   3.965713   3.381571   3.320226
    19  H    4.810952   3.941254   3.514900   2.170054   2.850883
    20  H    4.017143   2.804028   2.625229   2.215558   3.313445
    21  H    2.849101   2.850866   2.170053   3.514895   3.941230
    22  H    3.269578   3.313447   2.215558   2.625221   2.804017
                    6          7          8          9         10
     6  C    0.000000
     7  C    3.274661   0.000000
     8  C    3.897156   1.379361   0.000000
     9  C    4.153113   2.342312   1.502939   0.000000
    10  C    1.502939   3.776884   4.153136   3.846466   0.000000
    11  H    2.188456   3.371357   3.620909   4.446381   3.385504
    12  H    3.315461   3.557576   2.860686   2.984890   3.393277
    13  H    3.325127   4.134335   3.768990   2.867302   2.243194
    14  H    3.768951   3.267966   3.325124   2.243191   2.867284
    15  H    2.860635   2.216259   3.315460   3.393275   2.984873
    16  H    1.081558   3.815062   4.676370   5.064406   2.293594
    17  H    3.620889   1.082930   2.188452   3.385505   4.446390
    18  H    4.676382   2.195108   1.081559   2.293594   5.064437
    19  H    5.069946   2.849113   2.144872   1.099428   4.699659
    20  H    4.567031   3.269571   2.199532   1.091794   4.115095
    21  H    2.144873   4.810954   5.069973   4.699667   1.099428
    22  H    2.199533   4.017155   4.567051   4.115093   1.091795
                   11         12         13         14         15
    11  H    0.000000
    12  H    2.659238   0.000000
    13  H    4.272243   2.618985   0.000000
    14  H    5.100496   4.103395   2.411772   0.000000
    15  H    4.228616   4.703091   4.103398   2.618978   0.000000
    16  H    2.633975   4.320084   4.348283   4.541420   3.093609
    17  H    3.408726   4.228636   5.100518   4.272241   2.659244
    18  H    3.907594   3.093675   4.541465   4.348281   4.320084
    19  H    5.455958   4.057153   3.700946   2.490075   3.738964
    20  H    4.688816   2.626100   2.574119   2.765714   4.329448
    21  H    3.815064   3.738961   2.490086   3.700942   4.057135
    22  H    4.276359   4.329451   2.765709   2.574099   2.626096
                   16         17         18         19         20
    16  H    0.000000
    17  H    3.907558   0.000000
    18  H    5.430684   2.633970   0.000000
    19  H    5.908271   3.815078   2.775272   0.000000
    20  H    5.577597   4.276353   2.666734   1.769882   0.000000
    21  H    2.775273   5.455960   5.908306   5.586717   4.771465
    22  H    2.666735   4.688833   5.577621   4.771452   4.533478
                   21         22
    21  H    0.000000
    22  H    1.769883   0.000000
 Stoichiometry    C10H12
 Framework group  C1[X(C10H12)]
 Deg. of freedom    60
 Full point group                 C1      NOp   1
 Largest Abelian subgroup         C1      NOp   1
 Largest concise Abelian subgroup C1      NOp   1
                         Standard orientation:                         
 ---------------------------------------------------------------------
 Center     Atomic      Atomic             Coordinates (Angstroms)
 Number     Number       Type             X           Y           Z
 ---------------------------------------------------------------------
      1          6           0        1.340338    1.164530    0.708323
      2          6           0        0.653905    0.133972    1.361869
      3          6           0        0.681004   -1.055796    0.497945
      4          6           0       -0.680983   -1.055774   -0.497980
      5          6           0       -0.653881    0.134035   -1.361849
      6          6           0        1.891851    0.697760   -0.466671
      7          6           0       -1.340352    1.164552   -0.708271
      8          6           0       -1.891887    0.697723    0.466683
      9          6           0       -1.871491   -0.804892    0.443078
     10          6           0        1.871498   -0.804856   -0.443117
     11          1           0        1.354739    2.197159    1.034213
     12          1           0        0.206650    0.186703    2.342457
     13          1           0        0.664348   -2.018839    1.006350
     14          1           0       -0.664316   -2.018792   -1.006433
     15          1           0       -0.206637    0.186806   -2.342440
     16          1           0        2.442662    1.288622   -1.185879
     17          1           0       -1.354767    2.197196   -1.034118
     18          1           0       -2.442720    1.288544    1.185907
     19          1           0       -2.793288   -1.187136   -0.018355
     20          1           0       -1.766584   -1.280381    1.420278
     21          1           0        2.793309   -1.187090    0.018298
     22          1           0        1.766595   -1.280317   -1.420331
 ---------------------------------------------------------------------
 Rotational constants (GHZ):           2.4194787           1.3741004           1.3031557
 Standard basis: 6-311G(d,p) (5D, 7F)
 There are   262 symmetry adapted cartesian basis functions of A   symmetry.
 There are   252 symmetry adapted basis functions of A   symmetry.
   252 basis functions,   416 primitive gaussians,   262 cartesian basis functions
    36 alpha electrons       36 beta electrons
       nuclear repulsion energy       525.9717438033 Hartrees.
 NAtoms=   22 NActive=   22 NUniq=   22 SFac= 1.00D+00 NAtFMM=   60 NAOKFM=F Big=F
 Integral buffers will be    131072 words long.
 Raffenetti 2 integral format.
 Two-electron integral symmetry is turned on.
 Nuclear repulsion after empirical dispersion term =      525.9257450682 Hartrees.
 Force inversion solution in PCM.
 ------------------------------------------------------------------------------
 Polarizable Continuum Model (PCM)
 =================================
 Model                : PCM.
 Atomic radii         : UFF (Universal Force Field).
 Polarization charges : Total charges.
 Charge compensation  : None.
 Solution method      : Matrix inversion.
 Cavity type          : Scaled VdW (van der Waals Surface) (Alpha=1.100).
 Cavity algorithm     : GePol (No added spheres)
                        Default sphere list used, NSphG=   22.
                        Lebedev-Laikov grids with approx.  5.0 points / Ang**2.
                        Smoothing algorithm: York/Karplus (Gamma=1.0000).
                        Polarization charges: spherical gaussians, with
                                              point-specific exponents (IZeta= 3).
                        Self-potential: point-specific (ISelfS= 7).
                        Self-field    : sphere-specific E.n sum rule (ISelfD= 2).
 1st derivatives      : Analytical E(r).r(x)/FMM algorithm (CHGder, D1EAlg=3).
                        Cavity 1st derivative terms included.
 2nd derivatives      : Analytical E(r).r(xy)/FMM algorithm (CHGder, D2EAlg=3).
                        Cavity 2nd derivative terms included.
 Solvent              : Cis-Decalin, Eps=   2.213900 Eps(inf)=   2.193361
 ------------------------------------------------------------------------------
 One-electron integrals computed using PRISM.
 NBasis=   252 RedAO= T EigKep=  5.01D-04  NBF=   252
 NBsUse=   252 1.00D-06 EigRej= -1.00D+00 NBFU=   252
 ExpMin= 1.03D-01 ExpMax= 4.56D+03 ExpMxC= 6.82D+02 IAcc=3 IRadAn=         5 AccDes= 0.00D+00
 Harris functional with IExCor=  402 and IRadAn=       5 diagonalized for initial guess.
 HarFok:  IExCor=  402 AccDes= 0.00D+00 IRadAn=         5 IDoV= 1 UseB2=F ITyADJ=14
 ICtDFT=  3500011 ScaDFX=  1.000000  1.000000  1.000000  1.000000
 FoFCou: FMM=F IPFlag=           0 FMFlag=      100000 FMFlg1=           0
         NFxFlg=           0 DoJE=T BraDBF=F KetDBF=T FulRan=T
         wScrn=  0.000000 ICntrl=       500 IOpCl=  0 I1Cent=   200000004 NGrid=           0
         NMat0=    1 NMatS0=      1 NMatT0=    0 NMatD0=    1 NMtDS0=    0 NMtDT0=    0
 Petite list used in FoFCou.
 Requested convergence on RMS density matrix=1.00D-08 within 128 cycles.
 Requested convergence on MAX density matrix=1.00D-06.
 Requested convergence on             energy=1.00D-06.
 No special actions if energy rises.
 Inv3:  Mode=1 IEnd=     7170348.
 Iteration    1 A*A^-1 deviation from unit magnitude is 2.89D-15 for   1535.
 Iteration    1 A*A^-1 deviation from orthogonality  is 2.40D-15 for   1530   1035.
 Iteration    1 A^-1*A deviation from unit magnitude is 2.78D-15 for   1522.
 Iteration    1 A^-1*A deviation from orthogonality  is 1.83D-15 for   1535    978.
 Error on total polarization charges =  0.00615
 SCF Done:  E(RB3LYP) =  -388.322543720     A.U. after   13 cycles
            NFock= 13  Conv=0.16D-08     -V/T= 2.0048
 DoSCS=F DFT=T ScalE2(SS,OS)=  1.000000  1.000000
 Range of M.O.s used for correlation:     1   252
 NBasis=   252 NAE=    36 NBE=    36 NFC=     0 NFV=     0
 NROrb=    252 NOA=    36 NOB=    36 NVA=   216 NVB=   216
 Symmetrizing basis deriv contribution to polar:
 IMax=3 JMax=2 DiffMx= 0.00D+00
 G2DrvN: will do    23 centers at a time, making    1 passes.
 Calling FoFCou, ICntrl=  3107 FMM=F I1Cent=   0 AccDes= 0.00D+00.
 NEqPCM:  Using equilibrium solvation (IEInf=0, Eps=   2.2139, EpsInf=   2.1934)
 G2PCM: DoFxE=T DoFxN=T DoGrad=T DoDP/DQ/DG/TGxP=FFFF NFrqRd=   0 IEInf=0 SqF1=F DoCFld=F IF1Alg=4.
 End of G2Drv F.D. properties file   721 does not exist.
 End of G2Drv F.D. properties file   722 does not exist.
 End of G2Drv F.D. properties file   788 does not exist.
          IDoAtm=1111111111111111111111
 NEqPCM:  Using equilibrium solvation (IEInf=0, Eps=   2.2139, EpsInf=   2.1934)
          Differentiating once with respect to electric field.
                with respect to dipole field.
          Differentiating once with respect to nuclear coordinates.
 Keep R1 ints in memory in canonical form, NReq=612588626.
          There are    69 degrees of freedom in the 1st order CPHF.  IDoFFX=6 NUNeed=     3.
     66 vectors produced by pass  0 Test12= 1.13D-14 1.45D-09 XBig12= 4.19D+02 1.87D+01.
 AX will form    66 AO Fock derivatives at one time.
     66 vectors produced by pass  1 Test12= 1.13D-14 1.45D-09 XBig12= 8.90D+01 1.47D+00.
     66 vectors produced by pass  2 Test12= 1.13D-14 1.45D-09 XBig12= 8.24D-01 1.32D-01.
     66 vectors produced by pass  3 Test12= 1.13D-14 1.45D-09 XBig12= 1.68D-03 5.45D-03.
     66 vectors produced by pass  4 Test12= 1.13D-14 1.45D-09 XBig12= 2.47D-06 2.30D-04.
     47 vectors produced by pass  5 Test12= 1.13D-14 1.45D-09 XBig12= 2.74D-09 7.37D-06.
      8 vectors produced by pass  6 Test12= 1.13D-14 1.45D-09 XBig12= 3.42D-12 2.07D-07.
      3 vectors produced by pass  7 Test12= 1.13D-14 1.45D-09 XBig12= 3.87D-15 6.46D-09.
 InvSVY:  IOpt=1 It=  1 EMax= 1.07D-14
 Solved reduced A of dimension   388 with    69 vectors.
 Isotropic polarizability for W=    0.000000      136.06 Bohr**3.
 End of Minotr F.D. properties file   721 does not exist.
 End of Minotr F.D. properties file   722 does not exist.
 End of Minotr F.D. properties file   788 does not exist.

 **********************************************************************

            Population analysis using the SCF density.

 **********************************************************************

 Orbital symmetries:
       Occupied  (A) (A) (A) (A) (A) (A) (A) (A) (A) (A) (A) (A)
                 (A) (A) (A) (A) (A) (A) (A) (A) (A) (A) (A) (A)
                 (A) (A) (A) (A) (A) (A) (A) (A) (A) (A) (A) (A)
       Virtual   (A) (A) (A) (A) (A) (A) (A) (A) (A) (A) (A) (A)
                 (A) (A) (A) (A) (A) (A) (A) (A) (A) (A) (A) (A)
                 (A) (A) (A) (A) (A) (A) (A) (A) (A) (A) (A) (A)
                 (A) (A) (A) (A) (A) (A) (A) (A) (A) (A) (A) (A)
                 (A) (A) (A) (A) (A) (A) (A) (A) (A) (A) (A) (A)
                 (A) (A) (A) (A) (A) (A) (A) (A) (A) (A) (A) (A)
                 (A) (A) (A) (A) (A) (A) (A) (A) (A) (A) (A) (A)
                 (A) (A) (A) (A) (A) (A) (A) (A) (A) (A) (A) (A)
                 (A) (A) (A) (A) (A) (A) (A) (A) (A) (A) (A) (A)
                 (A) (A) (A) (A) (A) (A) (A) (A) (A) (A) (A) (A)
                 (A) (A) (A) (A) (A) (A) (A) (A) (A) (A) (A) (A)
                 (A) (A) (A) (A) (A) (A) (A) (A) (A) (A) (A) (A)
                 (A) (A) (A) (A) (A) (A) (A) (A) (A) (A) (A) (A)
                 (A) (A) (A) (A) (A) (A) (A) (A) (A) (A) (A) (A)
                 (A) (A) (A) (A) (A) (A) (A) (A) (A) (A) (A) (A)
                 (A) (A) (A) (A) (A) (A) (A) (A) (A) (A) (A) (A)
                 (A) (A) (A) (A) (A) (A) (A) (A) (A) (A) (A) (A)
                 (A) (A) (A) (A) (A) (A) (A) (A) (A) (A) (A) (A)
 The electronic state is 1-A.
 Alpha  occ. eigenvalues --  -10.18053 -10.18045 -10.16807 -10.16806 -10.16771
 Alpha  occ. eigenvalues --  -10.16770 -10.16366 -10.16364 -10.16088 -10.16087
 Alpha  occ. eigenvalues --   -0.87363  -0.83434  -0.72954  -0.70781  -0.68943
 Alpha  occ. eigenvalues --   -0.67452  -0.56997  -0.54994  -0.53196  -0.51476
 Alpha  occ. eigenvalues --   -0.51394  -0.49559  -0.45955  -0.42377  -0.38943
 Alpha  occ. eigenvalues --   -0.38008  -0.37717  -0.36984  -0.36531  -0.35710
 Alpha  occ. eigenvalues --   -0.34762  -0.33223  -0.32227  -0.29383  -0.25455
 Alpha  occ. eigenvalues --   -0.17537
 Alpha virt. eigenvalues --   -0.04913   0.02264   0.04652   0.05437   0.07458
 Alpha virt. eigenvalues --    0.07719   0.07770   0.09684   0.09746   0.10628
 Alpha virt. eigenvalues --    0.11093   0.12931   0.14067   0.14566   0.15320
 Alpha virt. eigenvalues --    0.18720   0.19800   0.20706   0.21428   0.22435
 Alpha virt. eigenvalues --    0.25508   0.27785   0.30428   0.31091   0.31812
 Alpha virt. eigenvalues --    0.33081   0.35317   0.36528   0.37318   0.37691
 Alpha virt. eigenvalues --    0.39169   0.40619   0.41993   0.42938   0.43179
 Alpha virt. eigenvalues --    0.43999   0.45477   0.46104   0.47150   0.50250
 Alpha virt. eigenvalues --    0.51650   0.52024   0.54794   0.54958   0.55457
 Alpha virt. eigenvalues --    0.56335   0.58589   0.58950   0.59492   0.59512
 Alpha virt. eigenvalues --    0.60481   0.60792   0.62194   0.63533   0.63818
 Alpha virt. eigenvalues --    0.64352   0.65740   0.66080   0.66959   0.68615
 Alpha virt. eigenvalues --    0.70389   0.70787   0.72572   0.74896   0.75490
 Alpha virt. eigenvalues --    0.76862   0.81125   0.81744   0.85086   0.86144
 Alpha virt. eigenvalues --    0.88472   0.90229   0.92166   0.97466   0.99823
 Alpha virt. eigenvalues --    1.05210   1.06403   1.08555   1.12340   1.14424
 Alpha virt. eigenvalues --    1.17396   1.20924   1.21075   1.22443   1.23660
 Alpha virt. eigenvalues --    1.27274   1.36380   1.38301   1.41668   1.43028
 Alpha virt. eigenvalues --    1.45685   1.48912   1.49182   1.49993   1.50412
 Alpha virt. eigenvalues --    1.52386   1.53053   1.54137   1.55588   1.57404
 Alpha virt. eigenvalues --    1.58181   1.59762   1.60015   1.60321   1.61875
 Alpha virt. eigenvalues --    1.64369   1.66311   1.66908   1.68354   1.71626
 Alpha virt. eigenvalues --    1.72606   1.73229   1.74643   1.76160   1.76969
 Alpha virt. eigenvalues --    1.77452   1.80538   1.81550   1.82756   1.83192
 Alpha virt. eigenvalues --    1.84478   1.85616   1.85871   1.88351   1.89646
 Alpha virt. eigenvalues --    1.91907   1.93556   1.94235   1.97116   1.97797
 Alpha virt. eigenvalues --    2.01093   2.01488   2.03471   2.06776   2.08931
 Alpha virt. eigenvalues --    2.13327   2.13457   2.15628   2.15853   2.19724
 Alpha virt. eigenvalues --    2.21663   2.21745   2.27405   2.28063   2.32400
 Alpha virt. eigenvalues --    2.36413   2.36594   2.39319   2.41569   2.43276
 Alpha virt. eigenvalues --    2.45436   2.46379   2.47049   2.48472   2.49699
 Alpha virt. eigenvalues --    2.52209   2.60160   2.61586   2.61610   2.62853
 Alpha virt. eigenvalues --    2.66947   2.67952   2.68309   2.68832   2.71154
 Alpha virt. eigenvalues --    2.71175   2.74786   2.76333   2.76667   2.78026
 Alpha virt. eigenvalues --    2.80273   2.83224   2.86942   2.88185   2.90649
 Alpha virt. eigenvalues --    2.91892   2.92905   2.99251   3.01767   3.02550
 Alpha virt. eigenvalues --    3.07539   3.11146   3.11597   3.17389   3.19166
 Alpha virt. eigenvalues --    3.29173   3.31277   3.41280   3.41648   3.42371
 Alpha virt. eigenvalues --    3.45473   3.55136   3.58274   3.72331   3.77803
 Alpha virt. eigenvalues --    3.96622   4.03994   4.04462   4.07658   4.09744
 Alpha virt. eigenvalues --    4.11562   4.13493   4.21408   4.22666   4.47217
 Alpha virt. eigenvalues --    4.48126  23.64263  23.77209  23.86305  23.88544
 Alpha virt. eigenvalues --   23.93063  23.98450  24.03828  24.06731  24.17351
 Alpha virt. eigenvalues --   24.19091
          Condensed to atoms (all electrons):
               1          2          3          4          5          6
     1  C    4.860585   0.489383  -0.077470  -0.008453   0.007944   0.521550
     2  C    0.489383   5.133173   0.412679  -0.070752  -0.073140  -0.098629
     3  C   -0.077470   0.412679   5.160054   0.249148  -0.070753  -0.076646
     4  C   -0.008453  -0.070752   0.249148   5.160055   0.412679  -0.024937
     5  C    0.007944  -0.073140  -0.070753   0.412679   5.133181   0.070975
     6  C    0.521550  -0.098629  -0.076646  -0.024937   0.070975   5.129201
     7  C   -0.020971   0.007945  -0.008452  -0.077469   0.489373  -0.013946
     8  C   -0.013945   0.070964  -0.024935  -0.076645  -0.098628  -0.005372
     9  C    0.000047  -0.016003  -0.056166   0.377588  -0.088786   0.000950
    10  C   -0.085644  -0.088785   0.377587  -0.056167  -0.016004   0.361489
    11  H    0.422146  -0.044201   0.006962  -0.000309   0.000753  -0.045502
    12  H   -0.034022   0.416767  -0.037391  -0.000329   0.000280   0.006675
    13  H    0.007169  -0.037156   0.407589  -0.031591   0.007139   0.007433
    14  H   -0.000457   0.007139  -0.031591   0.407590  -0.037156  -0.000401
    15  H   -0.000712   0.000280  -0.000328  -0.037391   0.416766   0.001520
    16  H   -0.038506   0.008669   0.004979   0.000446  -0.001854   0.415992
    17  H    0.001645   0.000753  -0.000309   0.006962  -0.044201   0.000021
    18  H    0.000206  -0.001854   0.000446   0.004979   0.008669   0.000071
    19  H   -0.000182   0.004614   0.007891  -0.033792   0.001937  -0.000332
    20  H    0.000893  -0.004179  -0.002329  -0.042949   0.009000   0.000087
    21  H   -0.002084   0.001937  -0.033792   0.007891   0.004615  -0.044098
    22  H    0.006436   0.009000  -0.042949  -0.002329  -0.004179  -0.039105
               7          8          9         10         11         12
     1  C   -0.020971  -0.013945   0.000047  -0.085644   0.422146  -0.034022
     2  C    0.007945   0.070964  -0.016003  -0.088785  -0.044201   0.416767
     3  C   -0.008452  -0.024935  -0.056166   0.377587   0.006962  -0.037391
     4  C   -0.077469  -0.076645   0.377588  -0.056167  -0.000309  -0.000329
     5  C    0.489373  -0.098628  -0.088786  -0.016004   0.000753   0.000280
     6  C   -0.013946  -0.005372   0.000950   0.361489  -0.045502   0.006675
     7  C    4.860582   0.521560  -0.085643   0.000046   0.001645  -0.000712
     8  C    0.521560   5.129191   0.361489   0.000950   0.000021   0.001521
     9  C   -0.085643   0.361489   4.905983   0.007505  -0.000070  -0.000147
    10  C    0.000046   0.000950   0.007505   4.905986   0.007901   0.005804
    11  H    0.001645   0.000021  -0.000070   0.007901   0.573084  -0.003533
    12  H   -0.000712   0.001521  -0.000147   0.005804  -0.003533   0.543331
    13  H   -0.000457  -0.000401  -0.004239  -0.028070  -0.000269  -0.003292
    14  H    0.007169   0.007433  -0.028070  -0.004240   0.000048  -0.000188
    15  H   -0.034021   0.006675   0.005804  -0.000147  -0.000053   0.000004
    16  H    0.000206   0.000071   0.000011  -0.036162  -0.004416  -0.000322
    17  H    0.422146  -0.045501   0.007901  -0.000070   0.000017  -0.000053
    18  H   -0.038506   0.415992  -0.036163   0.000011   0.000017   0.000374
    19  H   -0.002084  -0.044098   0.392261  -0.000338  -0.000004   0.000104
    20  H    0.006435  -0.039105   0.409594   0.000470  -0.000008  -0.000395
    21  H   -0.000182  -0.000332  -0.000338   0.392261  -0.000270  -0.000079
    22  H    0.000893   0.000087   0.000470   0.409594  -0.000263  -0.000315
              13         14         15         16         17         18
     1  C    0.007169  -0.000457  -0.000712  -0.038506   0.001645   0.000206
     2  C   -0.037156   0.007139   0.000280   0.008669   0.000753  -0.001854
     3  C    0.407589  -0.031591  -0.000328   0.004979  -0.000309   0.000446
     4  C   -0.031591   0.407590  -0.037391   0.000446   0.006962   0.004979
     5  C    0.007139  -0.037156   0.416766  -0.001854  -0.044201   0.008669
     6  C    0.007433  -0.000401   0.001520   0.415992   0.000021   0.000071
     7  C   -0.000457   0.007169  -0.034021   0.000206   0.422146  -0.038506
     8  C   -0.000401   0.007433   0.006675   0.000071  -0.045501   0.415992
     9  C   -0.004239  -0.028070   0.005804   0.000011   0.007901  -0.036163
    10  C   -0.028070  -0.004240  -0.000147  -0.036162  -0.000070   0.000011
    11  H   -0.000269   0.000048  -0.000053  -0.004416   0.000017   0.000017
    12  H   -0.003292  -0.000188   0.000004  -0.000322  -0.000053   0.000374
    13  H    0.558424  -0.005411  -0.000188  -0.000380   0.000048   0.000031
    14  H   -0.005411   0.558423  -0.003292   0.000031  -0.000269  -0.000380
    15  H   -0.000188  -0.003292   0.543328   0.000374  -0.003532  -0.000322
    16  H   -0.000380   0.000031   0.000374   0.558191   0.000017   0.000001
    17  H    0.000048  -0.000269  -0.003532   0.000017   0.573085  -0.004416
    18  H    0.000031  -0.000380  -0.000322   0.000001  -0.004416   0.558192
    19  H   -0.000380  -0.003321  -0.000078   0.000000  -0.000270   0.000445
    20  H    0.002911  -0.000790  -0.000315  -0.000006  -0.000263  -0.002276
    21  H   -0.003321  -0.000380   0.000104   0.000444  -0.000004   0.000000
    22  H   -0.000791   0.002911  -0.000395  -0.002276  -0.000008  -0.000006
              19         20         21         22
     1  C   -0.000182   0.000893  -0.002084   0.006436
     2  C    0.004614  -0.004179   0.001937   0.009000
     3  C    0.007891  -0.002329  -0.033792  -0.042949
     4  C   -0.033792  -0.042949   0.007891  -0.002329
     5  C    0.001937   0.009000   0.004615  -0.004179
     6  C   -0.000332   0.000087  -0.044098  -0.039105
     7  C   -0.002084   0.006435  -0.000182   0.000893
     8  C   -0.044098  -0.039105  -0.000332   0.000087
     9  C    0.392261   0.409594  -0.000338   0.000470
    10  C   -0.000338   0.000470   0.392261   0.409594
    11  H   -0.000004  -0.000008  -0.000270  -0.000263
    12  H    0.000104  -0.000395  -0.000079  -0.000315
    13  H   -0.000380   0.002911  -0.003321  -0.000791
    14  H   -0.003321  -0.000790  -0.000380   0.002911
    15  H   -0.000078  -0.000315   0.000104  -0.000395
    16  H    0.000000  -0.000006   0.000444  -0.002276
    17  H   -0.000270  -0.000263  -0.000004  -0.000008
    18  H    0.000445  -0.002276   0.000000  -0.000006
    19  H    0.586786  -0.033219  -0.000022  -0.000023
    20  H   -0.033219   0.583155  -0.000023  -0.000030
    21  H   -0.000022  -0.000023   0.586786  -0.033219
    22  H   -0.000023  -0.000030  -0.033219   0.583155
 Mulliken charges:
               1
     1  C   -0.035557
     2  C   -0.128606
     3  C   -0.164224
     4  C   -0.164224
     5  C   -0.128610
     6  C   -0.166997
     7  C   -0.035556
     8  C   -0.166993
     9  C   -0.153977
    10  C   -0.153977
    11  H    0.086302
    12  H    0.105918
    13  H    0.125202
    14  H    0.125203
    15  H    0.105920
    16  H    0.094489
    17  H    0.086301
    18  H    0.094489
    19  H    0.124106
    20  H    0.113343
    21  H    0.124106
    22  H    0.113342
 Sum of Mulliken charges =  -0.00000
 Mulliken charges with hydrogens summed into heavy atoms:
               1
     1  C    0.050745
     2  C   -0.022687
     3  C   -0.039022
     4  C   -0.039021
     5  C   -0.022690
     6  C   -0.072508
     7  C    0.050745
     8  C   -0.072505
     9  C    0.083471
    10  C    0.083472
 APT charges:
               1
     1  C   -0.024527
     2  C   -0.120797
     3  C    0.087196
     4  C    0.087184
     5  C   -0.120783
     6  C   -0.004223
     7  C   -0.024528
     8  C   -0.004232
     9  C    0.038990
    10  C    0.038989
    11  H    0.039340
    12  H    0.045769
    13  H   -0.017379
    14  H   -0.017378
    15  H    0.045765
    16  H    0.006756
    17  H    0.039339
    18  H    0.006761
    19  H   -0.047379
    20  H   -0.003741
    21  H   -0.047379
    22  H   -0.003741
 Sum of APT charges =   0.00000
 APT charges with hydrogens summed into heavy atoms:
               1
     1  C    0.014813
     2  C   -0.075028
     3  C    0.069817
     4  C    0.069806
     5  C   -0.075018
     6  C    0.002532
     7  C    0.014811
     8  C    0.002529
     9  C   -0.012130
    10  C   -0.012132
 Electronic spatial extent (au):  <R**2>=           1150.2234
 Charge=              0.0000 electrons
 Dipole moment (field-independent basis, Debye):
    X=             -0.0000    Y=             -0.4358    Z=             -0.0000  Tot=              0.4358
 Quadrupole moment (field-independent basis, Debye-Ang):
   XX=            -62.5367   YY=            -57.5154   ZZ=            -59.8698
   XY=              0.0001   XZ=             -3.3988   YZ=              0.0000
 Traceless Quadrupole moment (field-independent basis, Debye-Ang):
   XX=             -2.5627   YY=              2.4586   ZZ=              0.1041
   XY=              0.0001   XZ=             -3.3988   YZ=              0.0000
 Octapole moment (field-independent basis, Debye-Ang**2):
  XXX=             -0.0002  YYY=              3.5129  ZZZ=             -0.0001  XYY=              0.0000
  XXY=             -0.7219  XXZ=             -0.0000  XZZ=             -0.0001  YZZ=              0.6321
  YYZ=             -0.0000  XYZ=             -1.2883
 Hexadecapole moment (field-independent basis, Debye-Ang**3):
 XXXX=           -869.1824 YYYY=           -391.1736 ZZZZ=           -343.0511 XXXY=              0.0001
 XXXZ=            -22.8114 YYYX=             -0.0000 YYYZ=              0.0001 ZZZX=            -16.4127
 ZZZY=              0.0001 XXYY=           -204.1723 XXZZ=           -206.8090 YYZZ=           -122.2356
 XXYZ=              0.0003 YYXZ=              0.1178 ZZXY=              0.0004
 N-N= 5.259257450682D+02 E-N=-1.952354028230D+03  KE= 3.864499989243D+02
  Exact polarizability: 174.134   0.000 115.622   0.254  -0.000 118.420
 Approx polarizability: 302.072   0.001 162.383  13.874  -0.002 202.522
 D2PCM: PCM CHGder 2nd derivatives, FixD1E=F FixD2E=F DoIter=F DoCFld=F I1PDM=0
 Calling FoFJK, ICntrl=    100127 FMM=F ISym2X=0 I1Cent= 0 IOpClX= 0 NMat=1 NMatS=1 NMatT=0.
 Full mass-weighted force constant matrix:
 Low frequencies --- -133.1455   -0.0002    0.0006    0.0006   14.5257   31.6544
 Low frequencies ---   32.2378  155.8942  177.1897
 ******    1 imaginary frequencies (negative Signs) ****** 
 Diagonal vibrational polarizability:
        9.2776790       1.9007533       7.5153218
 Harmonic frequencies (cm**-1), IR intensities (KM/Mole), Raman scattering
 activities (A**4/AMU), depolarization ratios for plane and unpolarized
 incident light, reduced masses (AMU), force constants (mDyne/A),
 and normal coordinates:
                      1                      2                      3
                      A                      A                      A
 Frequencies --   -133.0837               155.8942               177.1886
 Red. masses --      5.2193                 4.3042                 3.4357
 Frc consts  --      0.0545                 0.0616                 0.0636
 IR Inten    --      2.9097                 0.2448                 0.2707
  Atom  AN      X      Y      Z        X      Y      Z        X      Y      Z
     1   6     0.02   0.06  -0.01    -0.19  -0.02   0.04    -0.07   0.04  -0.15
     2   6    -0.22   0.10  -0.11    -0.10  -0.08   0.02    -0.08   0.12  -0.04
     3   6    -0.09   0.07  -0.08    -0.02  -0.07  -0.04    -0.07   0.03   0.06
     4   6    -0.09  -0.07  -0.08     0.02  -0.07   0.04     0.07   0.03  -0.06
     5   6    -0.22  -0.10  -0.11     0.10  -0.08  -0.02     0.08   0.12   0.04
     6   6     0.26   0.04   0.16    -0.27   0.08  -0.03    -0.08  -0.10  -0.11
     7   6     0.02  -0.06  -0.01     0.19  -0.02  -0.04     0.07   0.04   0.15
     8   6     0.26  -0.04   0.16     0.27   0.08   0.03     0.08  -0.10   0.11
     9   6     0.01  -0.03   0.03     0.05   0.07   0.04     0.01  -0.09  -0.11
    10   6     0.01   0.03   0.03    -0.05   0.07  -0.04    -0.01  -0.09   0.11
    11   1     0.04   0.06   0.01    -0.27  -0.03   0.08    -0.08   0.09  -0.29
    12   1    -0.11   0.04  -0.07    -0.02  -0.17   0.06    -0.03   0.21  -0.03
    13   1    -0.08   0.10  -0.03     0.09  -0.08  -0.05    -0.13   0.08   0.15
    14   1    -0.08  -0.10  -0.03    -0.09  -0.08   0.05     0.13   0.08  -0.15
    15   1    -0.11  -0.04  -0.07     0.02  -0.17  -0.06     0.03   0.21   0.03
    16   1     0.40   0.01   0.24    -0.38   0.16  -0.05    -0.08  -0.18  -0.17
    17   1     0.04  -0.06   0.01     0.27  -0.03  -0.08     0.08   0.09   0.29
    18   1     0.40  -0.01   0.24     0.38   0.16   0.05     0.08  -0.18   0.17
    19   1    -0.07   0.15   0.03    -0.01   0.19   0.06     0.02   0.01  -0.21
    20   1     0.01  -0.15  -0.03     0.01   0.06   0.04    -0.05  -0.24  -0.17
    21   1    -0.07  -0.15   0.03     0.01   0.19  -0.06    -0.02   0.01   0.21
    22   1     0.01   0.15  -0.03    -0.01   0.06  -0.04     0.05  -0.24   0.17
                      4                      5                      6
                      A                      A                      A
 Frequencies --    285.3667               339.2909               399.8519
 Red. masses --      3.0291                 3.5745                 3.1032
 Frc consts  --      0.1453                 0.2424                 0.2923
 IR Inten    --      0.0934                 0.0144                 0.0027
  Atom  AN      X      Y      Z        X      Y      Z        X      Y      Z
     1   6     0.15   0.05   0.06    -0.14   0.03  -0.13     0.08   0.01   0.04
     2   6     0.05   0.09   0.04     0.07  -0.08  -0.04     0.17  -0.03   0.13
     3   6    -0.05   0.08   0.04     0.16  -0.04   0.04     0.05   0.01   0.11
     4   6    -0.05  -0.08   0.04    -0.16  -0.04  -0.04    -0.05   0.01  -0.11
     5   6     0.05  -0.09   0.04    -0.07  -0.08   0.04    -0.17  -0.03  -0.13
     6   6    -0.02   0.06  -0.02     0.09   0.04   0.00    -0.11   0.01  -0.04
     7   6     0.15  -0.05   0.06     0.14   0.03   0.13    -0.08   0.01  -0.04
     8   6    -0.02  -0.06  -0.02    -0.09   0.04  -0.00     0.11   0.01   0.04
     9   6    -0.15  -0.06  -0.10    -0.15   0.04  -0.03    -0.03   0.01  -0.11
    10   6    -0.15   0.06  -0.10     0.15   0.04   0.03     0.03   0.01   0.11
    11   1     0.33   0.02   0.14    -0.42   0.07  -0.23     0.11  -0.00   0.06
    12   1     0.15   0.08   0.08    -0.07  -0.03  -0.10     0.32  -0.06   0.20
    13   1     0.03   0.11   0.08     0.13  -0.08  -0.04    -0.05  -0.02   0.05
    14   1     0.03  -0.11   0.08    -0.13  -0.08   0.04     0.05  -0.02  -0.05
    15   1     0.15  -0.08   0.08     0.07  -0.03   0.10    -0.32  -0.06  -0.20
    16   1    -0.02   0.04  -0.04     0.06   0.07   0.00    -0.24   0.00  -0.14
    17   1     0.33  -0.02   0.14     0.42   0.07   0.23    -0.11  -0.00  -0.06
    18   1    -0.02  -0.04  -0.04    -0.06   0.07  -0.00     0.24   0.00   0.14
    19   1    -0.10   0.04  -0.27    -0.15   0.09  -0.09    -0.05   0.19  -0.22
    20   1    -0.32  -0.13  -0.11    -0.24   0.02  -0.03    -0.13  -0.14  -0.18
    21   1    -0.10  -0.04  -0.27     0.15   0.09   0.09     0.05   0.19   0.22
    22   1    -0.32   0.13  -0.11     0.24   0.02   0.03     0.13  -0.14   0.18
                      7                      8                      9
                      A                      A                      A
 Frequencies --    439.0004               461.3961               608.3300
 Red. masses --      2.0023                 2.3712                 1.9005
 Frc consts  --      0.2274                 0.2974                 0.4144
 IR Inten    --      1.4512                 0.0087                 3.7728
  Atom  AN      X      Y      Z        X      Y      Z        X      Y      Z
     1   6     0.10  -0.01   0.06     0.07  -0.03   0.02    -0.05   0.05  -0.06
     2   6    -0.01   0.02  -0.04    -0.03   0.00  -0.08     0.11  -0.03   0.03
     3   6    -0.08   0.03  -0.08    -0.06  -0.02  -0.15    -0.10   0.01  -0.05
     4   6    -0.08  -0.03  -0.08     0.06  -0.02   0.15    -0.10  -0.01  -0.05
     5   6    -0.01  -0.02  -0.04     0.03   0.00   0.08     0.11   0.03   0.03
     6   6    -0.07   0.03  -0.06    -0.01   0.02  -0.06     0.05   0.03   0.02
     7   6     0.10   0.01   0.06    -0.07  -0.03  -0.02    -0.05  -0.05  -0.06
     8   6    -0.07  -0.03  -0.06     0.01   0.02   0.06     0.05  -0.03   0.02
     9   6     0.04  -0.03   0.08    -0.12   0.03  -0.03    -0.04  -0.02   0.04
    10   6     0.04   0.03   0.08     0.12   0.03   0.03    -0.04   0.02   0.04
    11   1     0.25  -0.05   0.17     0.17  -0.06   0.12    -0.08   0.05  -0.06
    12   1    -0.07   0.02  -0.07     0.04  -0.08  -0.05     0.54  -0.16   0.24
    13   1    -0.11   0.04  -0.06     0.09   0.01  -0.06    -0.08  -0.00  -0.07
    14   1    -0.11  -0.04  -0.06    -0.09   0.01   0.06    -0.08   0.00  -0.07
    15   1    -0.07  -0.02  -0.07    -0.04  -0.08   0.05     0.54   0.16   0.24
    16   1    -0.05   0.01  -0.05     0.02   0.04  -0.02     0.04  -0.01  -0.01
    17   1     0.25   0.05   0.17    -0.17  -0.06  -0.12    -0.08  -0.05  -0.06
    18   1    -0.05  -0.01  -0.05    -0.02   0.04   0.02     0.04   0.01  -0.01
    19   1    -0.04  -0.21   0.38    -0.03   0.19  -0.34    -0.12   0.01   0.18
    20   1     0.32   0.14   0.13    -0.44  -0.10  -0.06     0.09  -0.01   0.02
    21   1    -0.04   0.21   0.38     0.03   0.19   0.34    -0.12  -0.01   0.18
    22   1     0.32  -0.14   0.13     0.44  -0.10   0.06     0.09   0.01   0.02
                     10                     11                     12
                      A                      A                      A
 Frequencies --    614.8750               704.5274               709.2989
 Red. masses --      2.8770                 1.5247                 1.2716
 Frc consts  --      0.6409                 0.4459                 0.3769
 IR Inten    --      0.7954                46.2469                 2.9981
  Atom  AN      X      Y      Z        X      Y      Z        X      Y      Z
     1   6    -0.11   0.04  -0.05     0.01  -0.03   0.00    -0.03  -0.01  -0.04
     2   6     0.12  -0.03   0.07    -0.12   0.02  -0.02    -0.02  -0.01  -0.02
     3   6    -0.16   0.04  -0.13     0.04   0.01   0.01     0.02  -0.02   0.04
     4   6     0.16   0.04   0.13     0.04  -0.01   0.01    -0.02  -0.02  -0.04
     5   6    -0.12  -0.03  -0.07    -0.12  -0.02  -0.02     0.02  -0.01   0.02
     6   6     0.05  -0.01   0.05    -0.03  -0.03   0.00    -0.02   0.03  -0.04
     7   6     0.11   0.04   0.05     0.01   0.03   0.00     0.03  -0.01   0.04
     8   6    -0.05  -0.01  -0.05    -0.03   0.03   0.00     0.02   0.03   0.04
     9   6     0.04  -0.02  -0.01     0.05   0.02  -0.02     0.05   0.03  -0.01
    10   6    -0.04  -0.02   0.01     0.05  -0.02  -0.02    -0.05   0.03   0.01
    11   1    -0.19   0.05  -0.09     0.16  -0.04   0.03     0.18  -0.07   0.13
    12   1     0.43  -0.16   0.22     0.48  -0.24   0.27     0.24  -0.06   0.10
    13   1    -0.09   0.03  -0.13     0.04   0.04   0.07     0.03  -0.03   0.03
    14   1     0.09   0.03   0.13     0.04  -0.04   0.07    -0.03  -0.03  -0.03
    15   1    -0.43  -0.16  -0.22     0.48   0.24   0.27    -0.24  -0.06  -0.10
    16   1     0.07  -0.02   0.05    -0.23   0.03  -0.11     0.50  -0.05   0.29
    17   1     0.19   0.05   0.09     0.16   0.04   0.03    -0.18  -0.07  -0.13
    18   1    -0.07  -0.02  -0.05    -0.23  -0.03  -0.11    -0.50  -0.05  -0.29
    19   1     0.16  -0.14  -0.15     0.08  -0.02  -0.06     0.01   0.14  -0.03
    20   1    -0.05   0.05   0.03     0.01   0.05  -0.00     0.02  -0.06  -0.05
    21   1    -0.16  -0.14   0.15     0.08   0.02  -0.06    -0.01   0.14   0.03
    22   1     0.05   0.05  -0.03     0.01  -0.05  -0.00    -0.02  -0.06   0.05
                     13                     14                     15
                      A                      A                      A
 Frequencies --    714.1561               737.1965               793.6893
 Red. masses --      1.2540                 1.5417                 3.3796
 Frc consts  --      0.3768                 0.4937                 1.2543
 IR Inten    --     47.5877                 0.3133                 0.0045
  Atom  AN      X      Y      Z        X      Y      Z        X      Y      Z
     1   6    -0.03  -0.04  -0.03    -0.01   0.03   0.02    -0.05  -0.08   0.01
     2   6    -0.02  -0.01   0.00    -0.08   0.06  -0.02    -0.01   0.03   0.17
     3   6     0.03  -0.01   0.04     0.04  -0.01   0.01     0.03   0.15  -0.04
     4   6     0.03   0.01   0.04    -0.04  -0.01  -0.01    -0.03   0.15   0.04
     5   6    -0.02   0.01   0.00     0.08   0.06   0.02     0.01   0.03  -0.17
     6   6    -0.02   0.02  -0.05     0.00  -0.03   0.04    -0.08  -0.07  -0.03
     7   6    -0.03   0.04  -0.03     0.01   0.03  -0.02     0.05  -0.08  -0.01
     8   6    -0.02  -0.02  -0.05    -0.00  -0.03  -0.04     0.08  -0.07   0.03
     9   6    -0.02  -0.02  -0.00    -0.08  -0.04   0.03    -0.14  -0.05   0.10
    10   6    -0.02   0.02  -0.00     0.08  -0.04  -0.03     0.14  -0.05  -0.10
    11   1     0.20  -0.09   0.12     0.07   0.03  -0.00     0.10  -0.04  -0.12
    12   1     0.11  -0.01   0.06     0.51  -0.20   0.26    -0.22   0.09   0.07
    13   1     0.05  -0.02   0.01     0.08   0.05   0.12    -0.09   0.09  -0.16
    14   1     0.05   0.02   0.01    -0.08   0.05  -0.12     0.09   0.09   0.16
    15   1     0.11   0.01   0.06    -0.51  -0.20  -0.26     0.22   0.09  -0.07
    16   1     0.52  -0.04   0.32    -0.14   0.02  -0.03     0.28   0.07   0.34
    17   1     0.20   0.09   0.12    -0.07   0.03   0.00    -0.10  -0.04   0.12
    18   1     0.52   0.04   0.32     0.14   0.02   0.03    -0.28   0.07  -0.34
    19   1     0.02  -0.14   0.01    -0.12  -0.11   0.15    -0.16   0.01   0.10
    20   1     0.00   0.09   0.05     0.03   0.07   0.07    -0.09  -0.13   0.06
    21   1     0.02   0.14   0.01     0.12  -0.11  -0.15     0.16   0.01  -0.10
    22   1     0.00  -0.09   0.05    -0.03   0.07  -0.07     0.09  -0.13  -0.06
                     16                     17                     18
                      A                      A                      A
 Frequencies --    809.9447               828.4873               843.6579
 Red. masses --      3.9256                 3.7847                 4.6224
 Frc consts  --      1.5173                 1.5306                 1.9384
 IR Inten    --     15.3539                 1.7882                35.8997
  Atom  AN      X      Y      Z        X      Y      Z        X      Y      Z
     1   6     0.07  -0.15  -0.07    -0.01   0.20   0.07    -0.04  -0.14  -0.03
     2   6    -0.07  -0.08  -0.00     0.13   0.06  -0.06    -0.03   0.05   0.26
     3   6    -0.04  -0.07   0.12     0.04  -0.10  -0.07    -0.08   0.17  -0.05
     4   6    -0.04   0.07   0.12    -0.04  -0.10   0.07    -0.08  -0.17  -0.05
     5   6    -0.07   0.08  -0.00    -0.13   0.06   0.06    -0.03  -0.05   0.26
     6   6     0.14   0.10  -0.09    -0.14  -0.04   0.08     0.04  -0.06  -0.05
     7   6     0.07   0.15  -0.07     0.01   0.20  -0.07    -0.04   0.14  -0.03
     8   6     0.14  -0.10  -0.09     0.14  -0.04  -0.08     0.04   0.06  -0.05
     9   6    -0.06  -0.14   0.06    -0.02  -0.12   0.00     0.11  -0.04  -0.12
    10   6    -0.06   0.14   0.06     0.02  -0.12  -0.00     0.11   0.04  -0.12
    11   1    -0.21  -0.15  -0.06     0.07   0.20   0.06     0.04  -0.06  -0.28
    12   1     0.01   0.11   0.03    -0.20   0.05  -0.21    -0.18   0.22   0.19
    13   1     0.08  -0.16  -0.03     0.09  -0.00   0.11     0.02   0.11  -0.16
    14   1     0.08   0.16  -0.03    -0.09  -0.00  -0.11     0.02  -0.11  -0.16
    15   1     0.01  -0.11   0.03     0.20   0.05   0.21    -0.18  -0.22   0.19
    16   1    -0.25   0.17  -0.33     0.28  -0.20   0.27    -0.03   0.19   0.10
    17   1    -0.21   0.15  -0.06    -0.07   0.20  -0.06     0.04   0.06  -0.28
    18   1    -0.25  -0.17  -0.33    -0.28  -0.20  -0.27    -0.03  -0.19   0.10
    19   1    -0.06  -0.15   0.07    -0.08  -0.05   0.08    -0.01   0.01   0.07
    20   1    -0.08  -0.01   0.13    -0.06   0.02   0.08     0.19   0.05  -0.08
    21   1    -0.06   0.15   0.07     0.08  -0.05  -0.08    -0.01  -0.01   0.07
    22   1    -0.08   0.01   0.13     0.06   0.02  -0.08     0.19  -0.05  -0.08
                     19                     20                     21
                      A                      A                      A
 Frequencies --    903.4437               931.1767               934.4643
 Red. masses --      2.5243                 2.1065                 1.9315
 Frc consts  --      1.2139                 1.0761                 0.9937
 IR Inten    --      9.3376                13.8130                 0.0543
  Atom  AN      X      Y      Z        X      Y      Z        X      Y      Z
     1   6    -0.01   0.02   0.03    -0.03   0.00  -0.01    -0.01  -0.00   0.01
     2   6    -0.02  -0.06  -0.09     0.02   0.00  -0.01     0.03  -0.05  -0.06
     3   6     0.13   0.17  -0.03    -0.11  -0.04   0.06    -0.06   0.03   0.03
     4   6    -0.13   0.17   0.03    -0.11   0.04   0.06     0.06   0.03  -0.03
     5   6     0.02  -0.06   0.09     0.02  -0.00  -0.01    -0.03  -0.05   0.06
     6   6    -0.01  -0.03   0.03     0.01   0.10  -0.03    -0.01   0.11  -0.05
     7   6     0.01   0.02  -0.03    -0.03  -0.00  -0.01     0.01  -0.00  -0.01
     8   6     0.01  -0.03  -0.03     0.01  -0.10  -0.03     0.01   0.11   0.05
     9   6     0.08  -0.05  -0.00     0.12   0.07  -0.02    -0.07  -0.09  -0.02
    10   6    -0.08  -0.05   0.00     0.12  -0.07  -0.02     0.07  -0.09   0.02
    11   1     0.00   0.01   0.06     0.05  -0.07   0.24    -0.10  -0.07   0.24
    12   1    -0.03  -0.46  -0.08     0.05   0.16  -0.01    -0.00  -0.06  -0.08
    13   1    -0.07   0.14  -0.12    -0.38   0.03   0.18    -0.40   0.10   0.14
    14   1     0.07   0.14   0.12    -0.38  -0.03   0.18     0.40   0.10  -0.14
    15   1     0.03  -0.46   0.08     0.05  -0.16  -0.01     0.00  -0.06   0.08
    16   1    -0.07  -0.05  -0.03    -0.02   0.27   0.07     0.03   0.23   0.06
    17   1     0.00   0.01  -0.06     0.05   0.07   0.24     0.10  -0.07  -0.24
    18   1     0.07  -0.05   0.03    -0.02  -0.27   0.07    -0.03   0.23  -0.06
    19   1     0.18  -0.01  -0.23     0.18   0.15  -0.21    -0.12  -0.19   0.17
    20   1    -0.01  -0.26  -0.10    -0.07  -0.01  -0.05     0.20  -0.08  -0.04
    21   1    -0.18  -0.01   0.23     0.18  -0.15  -0.21     0.12  -0.19  -0.17
    22   1     0.01  -0.26   0.10    -0.07   0.01  -0.05    -0.20  -0.08   0.04
                     22                     23                     24
                      A                      A                      A
 Frequencies --    951.1496               955.3207               967.4400
 Red. masses --      1.3547                 1.3853                 1.6904
 Frc consts  --      0.7221                 0.7449                 0.9322
 IR Inten    --      1.1057                13.5163                32.2664
  Atom  AN      X      Y      Z        X      Y      Z        X      Y      Z
     1   6    -0.10   0.02  -0.04    -0.10   0.01  -0.04    -0.01  -0.03   0.04
     2   6     0.02   0.00   0.02     0.03  -0.01   0.00     0.01  -0.02  -0.03
     3   6     0.00  -0.01   0.01     0.03   0.02  -0.00     0.04   0.10  -0.01
     4   6    -0.00  -0.01  -0.01     0.03  -0.02  -0.00     0.04  -0.10  -0.01
     5   6    -0.02   0.00  -0.02     0.03   0.01   0.00     0.01   0.02  -0.03
     6   6     0.04  -0.00   0.03     0.06  -0.01   0.02     0.03   0.07  -0.04
     7   6     0.10   0.02   0.04    -0.10  -0.01  -0.04    -0.01   0.03   0.04
     8   6    -0.04  -0.00  -0.03     0.06   0.01   0.02     0.03  -0.07  -0.04
     9   6    -0.00  -0.01   0.03    -0.02   0.00  -0.00    -0.03   0.08  -0.01
    10   6     0.00  -0.01  -0.03    -0.02  -0.00  -0.00    -0.03  -0.08  -0.01
    11   1     0.52  -0.11   0.33     0.47  -0.13   0.35    -0.28  -0.03   0.07
    12   1    -0.10   0.09  -0.04    -0.12   0.03  -0.07    -0.03  -0.21  -0.04
    13   1     0.03   0.01   0.05     0.11   0.03   0.02     0.13   0.18   0.13
    14   1    -0.03   0.01  -0.05     0.11  -0.03   0.02     0.13  -0.18   0.13
    15   1     0.10   0.09   0.04    -0.12  -0.03  -0.07    -0.03   0.21  -0.04
    16   1    -0.21   0.06  -0.11    -0.22   0.02  -0.16     0.01   0.22   0.07
    17   1    -0.52  -0.11  -0.33     0.47   0.13   0.35    -0.28   0.03   0.07
    18   1     0.21   0.06   0.11    -0.22  -0.02  -0.16     0.01  -0.22   0.07
    19   1     0.02   0.01  -0.05    -0.08   0.04   0.08    -0.14   0.15   0.14
    20   1    -0.06  -0.06   0.01     0.00   0.05   0.02    -0.11   0.35   0.13
    21   1    -0.02   0.01   0.05    -0.08  -0.04   0.08    -0.14  -0.15   0.14
    22   1     0.06  -0.06  -0.01     0.00  -0.05   0.02    -0.11  -0.35   0.13
                     25                     26                     27
                      A                      A                      A
 Frequencies --    982.0481               990.3668              1024.8960
 Red. masses --      1.9187                 1.8096                 1.5899
 Frc consts  --      1.0902                 1.0458                 0.9840
 IR Inten    --     13.9669                 0.3880                 0.0381
  Atom  AN      X      Y      Z        X      Y      Z        X      Y      Z
     1   6    -0.00  -0.03  -0.02    -0.01  -0.01  -0.03     0.01   0.00  -0.01
     2   6     0.00  -0.03   0.01     0.01  -0.04  -0.03     0.01  -0.03  -0.05
     3   6     0.00   0.09  -0.06    -0.00   0.05  -0.04    -0.05   0.01   0.08
     4   6     0.00  -0.09  -0.06     0.00   0.05   0.04     0.05   0.01  -0.08
     5   6     0.00   0.03   0.01    -0.01  -0.04   0.03    -0.01  -0.03   0.05
     6   6    -0.03  -0.01  -0.05    -0.04  -0.06  -0.01    -0.01  -0.05   0.05
     7   6    -0.00   0.03  -0.02     0.01  -0.01   0.03    -0.01   0.00   0.01
     8   6    -0.03   0.01  -0.05     0.04  -0.06   0.01     0.01  -0.05  -0.05
     9   6     0.04  -0.04   0.14    -0.05   0.08  -0.11    -0.00   0.04   0.08
    10   6     0.04   0.04   0.14     0.05   0.08   0.11     0.00   0.04  -0.08
    11   1     0.04  -0.06   0.06     0.20  -0.05   0.07     0.02   0.03  -0.10
    12   1    -0.02  -0.11  -0.00    -0.05  -0.11  -0.06     0.01  -0.13  -0.05
    13   1    -0.02   0.07  -0.09    -0.06   0.02  -0.10    -0.42   0.08   0.18
    14   1    -0.02  -0.07  -0.09     0.06   0.02   0.10     0.42   0.08  -0.18
    15   1    -0.02   0.11  -0.00     0.05  -0.11   0.06    -0.01  -0.13   0.05
    16   1     0.07  -0.14  -0.08     0.05  -0.29  -0.11    -0.01  -0.11   0.02
    17   1     0.04   0.06   0.06    -0.20  -0.05  -0.07    -0.02   0.03   0.10
    18   1     0.07   0.14  -0.08    -0.05  -0.29   0.11     0.01  -0.11  -0.02
    19   1     0.11   0.27  -0.25    -0.13  -0.12   0.23    -0.05   0.28  -0.02
    20   1    -0.42  -0.24   0.09     0.23   0.39   0.01    -0.30   0.15   0.16
    21   1     0.11  -0.27  -0.25     0.13  -0.12  -0.23     0.05   0.28   0.02
    22   1    -0.42   0.24   0.09    -0.23   0.39  -0.01     0.30   0.15  -0.16
                     28                     29                     30
                      A                      A                      A
 Frequencies --   1034.1836              1085.0488              1093.7684
 Red. masses --      1.7687                 1.1817                 1.2412
 Frc consts  --      1.1146                 0.8197                 0.8749
 IR Inten    --     34.8536                 7.9243                 0.2037
  Atom  AN      X      Y      Z        X      Y      Z        X      Y      Z
     1   6    -0.02  -0.06   0.00     0.02   0.04  -0.03    -0.03  -0.05   0.03
     2   6     0.05  -0.04  -0.08    -0.01  -0.05   0.03     0.03   0.03  -0.04
     3   6    -0.05   0.07   0.06    -0.02   0.00   0.02     0.02   0.04   0.00
     4   6    -0.05  -0.07   0.06    -0.02  -0.00   0.02    -0.02   0.04  -0.00
     5   6     0.05   0.04  -0.08    -0.01   0.05   0.03    -0.03   0.03   0.04
     6   6    -0.01  -0.07   0.03     0.01   0.02   0.00    -0.01  -0.03   0.00
     7   6    -0.02   0.06   0.00     0.02  -0.04  -0.03     0.03  -0.05  -0.03
     8   6    -0.01   0.07   0.03     0.01  -0.02   0.00     0.01  -0.03  -0.00
     9   6     0.02  -0.07  -0.03    -0.00  -0.00   0.00     0.00   0.01   0.02
    10   6     0.02   0.07  -0.03    -0.00   0.00   0.00    -0.00   0.01  -0.02
    11   1    -0.12  -0.08   0.06     0.25   0.12  -0.29    -0.32  -0.16   0.39
    12   1     0.00  -0.14  -0.10    -0.21  -0.43  -0.04     0.15   0.34  -0.01
    13   1     0.01   0.28   0.46    -0.15   0.04   0.08     0.05   0.06   0.05
    14   1     0.01  -0.28   0.46    -0.15  -0.04   0.08    -0.05   0.06  -0.05
    15   1     0.00   0.14  -0.10    -0.21   0.43  -0.04    -0.15   0.34   0.01
    16   1     0.01  -0.13   0.00    -0.02   0.08   0.03     0.04  -0.20  -0.09
    17   1    -0.12   0.08   0.06     0.25  -0.12  -0.29     0.32  -0.16  -0.39
    18   1     0.01   0.13   0.00    -0.02  -0.08   0.03    -0.04  -0.20   0.09
    19   1     0.02  -0.12   0.02     0.10  -0.16  -0.07     0.03   0.01  -0.05
    20   1     0.17  -0.22  -0.12    -0.04   0.09   0.05    -0.07   0.04   0.04
    21   1     0.02   0.12   0.02     0.10   0.16  -0.07    -0.03   0.01   0.05
    22   1     0.17   0.22  -0.12    -0.04  -0.09   0.05     0.07   0.04  -0.04
                     31                     32                     33
                      A                      A                      A
 Frequencies --   1109.6165              1110.1731              1131.1628
 Red. masses --      1.3443                 1.4953                 1.1170
 Frc consts  --      0.9752                 1.0858                 0.8421
 IR Inten    --      8.3160                 6.0034                 0.6560
  Atom  AN      X      Y      Z        X      Y      Z        X      Y      Z
     1   6     0.01  -0.05  -0.04     0.00  -0.08  -0.03    -0.01  -0.00   0.01
     2   6     0.03   0.00  -0.06     0.05   0.01  -0.07     0.01  -0.01   0.03
     3   6     0.00  -0.01  -0.01     0.00   0.02  -0.00    -0.03   0.01   0.01
     4   6     0.00   0.01  -0.01    -0.00   0.02   0.00     0.03   0.01  -0.01
     5   6     0.03  -0.00  -0.06    -0.05   0.01   0.07    -0.01  -0.01  -0.03
     6   6    -0.05  -0.01   0.06    -0.05  -0.03   0.05     0.02  -0.00  -0.04
     7   6     0.01   0.05  -0.04    -0.00  -0.08   0.03     0.01  -0.00  -0.02
     8   6    -0.05   0.01   0.06     0.05  -0.03  -0.06    -0.02  -0.00   0.04
     9   6    -0.01  -0.01   0.04     0.01   0.02  -0.03    -0.00   0.01   0.01
    10   6    -0.01   0.01   0.04    -0.01   0.02   0.03     0.00   0.01  -0.01
    11   1     0.18   0.01  -0.26     0.08  -0.04  -0.18    -0.07  -0.00   0.03
    12   1     0.07   0.15  -0.05     0.07   0.15  -0.08    -0.14  -0.27  -0.02
    13   1     0.13   0.01   0.02     0.18   0.14   0.22     0.32   0.24   0.47
    14   1     0.13  -0.01   0.02    -0.18   0.14  -0.22    -0.32   0.24  -0.47
    15   1     0.07  -0.15  -0.05    -0.07   0.15   0.08     0.14  -0.27   0.02
    16   1    -0.16   0.41   0.33    -0.14   0.37   0.32     0.08  -0.10  -0.08
    17   1     0.18  -0.01  -0.26    -0.08  -0.04   0.18     0.07  -0.00  -0.03
    18   1    -0.15  -0.41   0.33     0.14   0.37  -0.32    -0.08  -0.10   0.08
    19   1    -0.08   0.13   0.05     0.10  -0.13  -0.08    -0.00  -0.01   0.02
    20   1    -0.06  -0.07   0.02     0.04   0.10   0.00     0.00  -0.01  -0.00
    21   1    -0.08  -0.13   0.05    -0.10  -0.13   0.08     0.00  -0.01  -0.02
    22   1    -0.06   0.07   0.02    -0.04   0.10  -0.00    -0.00  -0.01   0.00
                     34                     35                     36
                      A                      A                      A
 Frequencies --   1146.6072              1165.2158              1250.2850
 Red. masses --      1.1995                 1.1518                 1.4532
 Frc consts  --      0.9291                 0.9214                 1.3384
 IR Inten    --      9.6910                 1.7367                 0.4352
  Atom  AN      X      Y      Z        X      Y      Z        X      Y      Z
     1   6    -0.01  -0.03  -0.00    -0.01  -0.01   0.00     0.00   0.04   0.01
     2   6     0.03   0.00  -0.02     0.02   0.00  -0.02    -0.00  -0.03  -0.01
     3   6     0.01   0.04  -0.03    -0.02   0.01  -0.04    -0.11  -0.02   0.01
     4   6     0.01  -0.04  -0.03     0.02   0.01   0.04    -0.11   0.02   0.01
     5   6     0.03  -0.00  -0.02    -0.02   0.00   0.02    -0.00   0.03  -0.01
     6   6     0.02  -0.03   0.05     0.03  -0.02   0.04    -0.00  -0.02   0.00
     7   6    -0.01   0.03  -0.00     0.01  -0.01  -0.00     0.00  -0.04   0.01
     8   6     0.02   0.03   0.05    -0.03  -0.02  -0.04    -0.00   0.02   0.00
     9   6    -0.02  -0.00   0.01     0.01   0.01  -0.01     0.06  -0.01  -0.02
    10   6    -0.02   0.00   0.01    -0.01   0.01   0.01     0.06   0.01  -0.02
    11   1    -0.08  -0.04   0.04    -0.03  -0.00  -0.03     0.01   0.05   0.01
    12   1     0.08   0.19  -0.01     0.04   0.05  -0.02     0.00   0.03  -0.01
    13   1    -0.18   0.03  -0.07     0.05   0.04   0.02     0.61  -0.05  -0.01
    14   1    -0.18  -0.03  -0.07    -0.05   0.04  -0.02     0.61   0.05  -0.01
    15   1     0.08  -0.19  -0.01    -0.04   0.05   0.02     0.00  -0.03  -0.01
    16   1    -0.08   0.02   0.03    -0.07   0.02   0.01     0.02  -0.05  -0.01
    17   1    -0.08   0.04   0.04     0.03  -0.00   0.03     0.01  -0.05   0.01
    18   1    -0.08  -0.02   0.03     0.07   0.02  -0.01     0.02   0.05  -0.01
    19   1     0.25  -0.42  -0.19    -0.29   0.44   0.23     0.11  -0.03  -0.11
    20   1    -0.16   0.26   0.15     0.20  -0.28  -0.17    -0.13   0.22   0.11
    21   1     0.25   0.42  -0.19     0.29   0.44  -0.23     0.11   0.03  -0.11
    22   1    -0.16  -0.26   0.15    -0.20  -0.28   0.17    -0.13  -0.22   0.11
                     37                     38                     39
                      A                      A                      A
 Frequencies --   1268.9378              1274.6176              1298.2794
 Red. masses --      2.1166                 1.7378                 1.3220
 Frc consts  --      2.0080                 1.6634                 1.3128
 IR Inten    --      2.6383                 7.2521                 0.7244
  Atom  AN      X      Y      Z        X      Y      Z        X      Y      Z
     1   6    -0.00  -0.06  -0.02     0.01  -0.03  -0.02    -0.02  -0.02   0.04
     2   6    -0.01   0.03   0.05    -0.01   0.01   0.05    -0.01  -0.04   0.02
     3   6     0.08  -0.00  -0.09    -0.00  -0.02  -0.07     0.02  -0.04  -0.06
     4   6    -0.08  -0.00   0.09    -0.00   0.02  -0.07     0.02   0.04  -0.06
     5   6     0.01   0.03  -0.05    -0.01  -0.01   0.05    -0.01   0.04   0.02
     6   6     0.02   0.06  -0.01     0.01   0.06  -0.01    -0.00   0.05   0.02
     7   6     0.00  -0.06   0.02     0.01   0.03  -0.02    -0.02   0.02   0.04
     8   6    -0.02   0.06   0.01     0.01  -0.06  -0.01    -0.00  -0.05   0.02
     9   6     0.09  -0.10  -0.08    -0.06   0.11   0.06     0.01  -0.03  -0.02
    10   6    -0.09  -0.10   0.08    -0.06  -0.11   0.06     0.01   0.03  -0.02
    11   1     0.01  -0.05  -0.03     0.00  -0.02  -0.02     0.15   0.08  -0.26
    12   1    -0.02   0.02   0.05    -0.03   0.06   0.04     0.07   0.27   0.04
    13   1    -0.19   0.14   0.17     0.30   0.13   0.24    -0.06   0.18   0.36
    14   1     0.19   0.14  -0.17     0.30  -0.13   0.24    -0.06  -0.18   0.36
    15   1     0.02   0.02  -0.05    -0.03  -0.06   0.04     0.07  -0.27   0.04
    16   1    -0.01   0.06  -0.04     0.01   0.05  -0.03     0.07  -0.21  -0.14
    17   1    -0.01  -0.05   0.03     0.00   0.02  -0.02     0.15  -0.08  -0.26
    18   1     0.01   0.06   0.04     0.01  -0.05  -0.03     0.07   0.21  -0.14
    19   1    -0.15   0.24   0.12     0.20  -0.25  -0.18    -0.08   0.11   0.05
    20   1    -0.26   0.39   0.20     0.21  -0.29  -0.16    -0.11   0.17   0.09
    21   1     0.15   0.24  -0.12     0.20   0.25  -0.18    -0.08  -0.11   0.05
    22   1     0.26   0.39  -0.20     0.21   0.29  -0.16    -0.11  -0.17   0.09
                     40                     41                     42
                      A                      A                      A
 Frequencies --   1300.7566              1354.7472              1360.3092
 Red. masses --      1.3257                 2.0256                 2.6019
 Frc consts  --      1.3215                 2.1904                 2.8367
 IR Inten    --      0.0587                 3.0417                10.0015
  Atom  AN      X      Y      Z        X      Y      Z        X      Y      Z
     1   6    -0.02  -0.02   0.03    -0.02  -0.01   0.01    -0.02   0.00   0.02
     2   6    -0.01  -0.04   0.01     0.03   0.12   0.03     0.02   0.13   0.05
     3   6     0.05  -0.02  -0.06     0.06  -0.09  -0.05    -0.00  -0.14  -0.09
     4   6    -0.05  -0.02   0.06    -0.06  -0.09   0.05    -0.00   0.14  -0.09
     5   6     0.01  -0.04  -0.01    -0.03   0.12  -0.03     0.02  -0.13   0.05
     6   6    -0.01   0.05   0.02     0.02  -0.08  -0.04     0.05  -0.09  -0.07
     7   6     0.02  -0.02  -0.03     0.02  -0.01  -0.01    -0.02  -0.00   0.02
     8   6     0.01   0.05  -0.02    -0.02  -0.08   0.04     0.05   0.09  -0.07
     9   6    -0.02   0.03   0.02     0.00   0.09  -0.01    -0.01  -0.09   0.02
    10   6     0.02   0.03  -0.02    -0.00   0.09   0.01    -0.01   0.09   0.02
    11   1     0.15   0.07  -0.25    -0.13  -0.07   0.19    -0.15  -0.05   0.19
    12   1     0.08   0.28   0.04    -0.09  -0.28  -0.00    -0.09  -0.29   0.03
    13   1    -0.24   0.15   0.26    -0.43   0.01   0.12    -0.03   0.08   0.35
    14   1     0.24   0.15  -0.26     0.43   0.01  -0.12    -0.03  -0.08   0.35
    15   1    -0.08   0.28  -0.04     0.09  -0.28   0.00    -0.09   0.29   0.03
    16   1     0.06  -0.23  -0.15    -0.05   0.19   0.12    -0.06   0.26   0.15
    17   1    -0.15   0.07   0.25     0.13  -0.07  -0.19    -0.15   0.05   0.19
    18   1    -0.06  -0.23   0.15     0.05   0.19  -0.12    -0.06  -0.26   0.15
    19   1     0.10  -0.12  -0.08     0.09  -0.09  -0.03    -0.02   0.03  -0.04
    20   1     0.12  -0.17  -0.09     0.12  -0.12  -0.12    -0.14   0.11   0.13
    21   1    -0.10  -0.12   0.08    -0.09  -0.09   0.03    -0.02  -0.03  -0.04
    22   1    -0.12  -0.17   0.09    -0.12  -0.12   0.12    -0.14  -0.11   0.13
                     43                     44                     45
                      A                      A                      A
 Frequencies --   1447.3313              1456.1275              1477.8830
 Red. masses --      2.7477                 2.2674                 1.2080
 Frc consts  --      3.3912                 2.8326                 1.5545
 IR Inten    --      9.6063                 3.4807                 7.3030
  Atom  AN      X      Y      Z        X      Y      Z        X      Y      Z
     1   6    -0.11  -0.11   0.14    -0.07  -0.12   0.07     0.01   0.03   0.01
     2   6     0.07   0.13  -0.08     0.07   0.12  -0.06    -0.01  -0.04   0.00
     3   6    -0.03  -0.01   0.04    -0.02  -0.00   0.05     0.01   0.02   0.00
     4   6    -0.03   0.01   0.04     0.02  -0.00  -0.05     0.01  -0.02   0.00
     5   6     0.07  -0.13  -0.08    -0.07   0.12   0.06    -0.01   0.04   0.00
     6   6     0.04   0.05  -0.03    -0.00   0.07   0.02     0.00  -0.03  -0.02
     7   6    -0.11   0.11   0.14     0.07  -0.12  -0.07     0.01  -0.03   0.01
     8   6     0.04  -0.05  -0.03     0.00   0.07  -0.02     0.00   0.03  -0.02
     9   6    -0.01   0.01   0.02     0.01   0.00  -0.01    -0.04  -0.04   0.03
    10   6    -0.01  -0.01   0.02    -0.01   0.00   0.01    -0.04   0.04   0.03
    11   1     0.20   0.04  -0.37     0.13  -0.03  -0.26     0.00   0.03   0.02
    12   1     0.04  -0.21  -0.09    -0.02  -0.24  -0.10     0.02   0.09   0.01
    13   1     0.05  -0.14  -0.22     0.05  -0.12  -0.18    -0.05   0.03   0.01
    14   1     0.05   0.14  -0.22    -0.05  -0.12   0.18    -0.05  -0.03   0.01
    15   1     0.04   0.21  -0.09     0.02  -0.24   0.10     0.02  -0.09   0.01
    16   1     0.05  -0.12  -0.17     0.07  -0.21  -0.16    -0.02   0.08   0.04
    17   1     0.20  -0.04  -0.37    -0.13  -0.03   0.26     0.00  -0.03   0.02
    18   1     0.06   0.12  -0.17    -0.07  -0.21   0.16    -0.02  -0.08   0.04
    19   1     0.08   0.05  -0.18    -0.04  -0.17   0.22     0.06   0.27  -0.39
    20   1     0.15   0.04   0.01    -0.24  -0.14  -0.04     0.45   0.20   0.08
    21   1     0.08  -0.05  -0.18     0.04  -0.17  -0.22     0.06  -0.27  -0.39
    22   1     0.15  -0.04   0.01     0.24  -0.14   0.04     0.45  -0.20   0.08
                     46                     47                     48
                      A                      A                      A
 Frequencies --   1478.5470              1491.7934              1517.5972
 Red. masses --      1.2579                 2.7822                 3.5577
 Frc consts  --      1.6202                 3.6481                 4.8276
 IR Inten    --      1.9975                 7.1381                 0.9140
  Atom  AN      X      Y      Z        X      Y      Z        X      Y      Z
     1   6     0.01   0.04   0.01     0.06  -0.09  -0.14     0.11  -0.04  -0.21
     2   6    -0.02  -0.05   0.01     0.03   0.09   0.02    -0.02   0.03   0.05
     3   6     0.00   0.01  -0.01    -0.01  -0.03  -0.02    -0.00  -0.01  -0.03
     4   6    -0.00   0.01   0.01    -0.01   0.03  -0.02     0.00  -0.01   0.03
     5   6     0.02  -0.05  -0.01     0.03  -0.09   0.02     0.02   0.03  -0.05
     6   6     0.01  -0.03  -0.03    -0.08   0.10   0.14    -0.09   0.10   0.18
     7   6    -0.01   0.04  -0.01     0.06   0.09  -0.14    -0.11  -0.04   0.21
     8   6    -0.01  -0.03   0.03    -0.08  -0.10   0.14     0.09   0.10  -0.18
     9   6     0.04   0.04  -0.03     0.01  -0.02  -0.01    -0.01   0.01   0.02
    10   6    -0.04   0.04   0.03     0.01   0.02  -0.01     0.01   0.01  -0.02
    11   1    -0.01   0.04   0.03    -0.10  -0.20   0.13    -0.17  -0.21   0.25
    12   1     0.04   0.12   0.03    -0.12  -0.27  -0.03    -0.09  -0.18   0.04
    13   1    -0.01   0.04   0.04     0.06  -0.02   0.01     0.02   0.01   0.03
    14   1     0.01   0.04  -0.04     0.06   0.02   0.01    -0.02   0.01  -0.03
    15   1    -0.04   0.12  -0.03    -0.12   0.27  -0.03     0.09  -0.18  -0.04
    16   1    -0.03   0.10   0.06     0.02  -0.30  -0.07    -0.01  -0.26  -0.02
    17   1     0.01   0.04  -0.03    -0.10   0.20   0.13     0.17  -0.21  -0.25
    18   1     0.03   0.10  -0.06     0.02   0.30  -0.07     0.01  -0.26   0.02
    19   1    -0.06  -0.25   0.39    -0.00   0.20  -0.15     0.02  -0.18   0.12
    20   1    -0.43  -0.20  -0.08     0.14   0.26   0.10    -0.11  -0.26  -0.09
    21   1     0.06  -0.25  -0.39    -0.00  -0.20  -0.15    -0.02  -0.18  -0.12
    22   1     0.43  -0.20   0.08     0.14  -0.26   0.10     0.11  -0.26   0.09
                     49                     50                     51
                      A                      A                      A
 Frequencies --   2986.0463              2986.3539              3076.2062
 Red. masses --      1.0709                 1.0712                 1.0903
 Frc consts  --      5.6257                 5.6288                 6.0791
 IR Inten    --    138.5290                24.4765                13.4211
  Atom  AN      X      Y      Z        X      Y      Z        X      Y      Z
     1   6     0.00   0.00  -0.00     0.00   0.00  -0.00    -0.00   0.00   0.00
     2   6    -0.00  -0.00   0.00    -0.00  -0.00   0.00     0.00   0.00  -0.00
     3   6    -0.00  -0.00   0.00    -0.00  -0.00   0.00    -0.00   0.01  -0.00
     4   6    -0.00   0.00   0.00     0.00  -0.00  -0.00     0.00   0.01   0.00
     5   6    -0.00   0.00   0.00     0.00  -0.00  -0.00    -0.00   0.00   0.00
     6   6    -0.00   0.00  -0.00    -0.00   0.00  -0.00    -0.00  -0.00   0.00
     7   6     0.00  -0.00  -0.00    -0.00   0.00   0.00     0.00   0.00  -0.00
     8   6    -0.00  -0.00  -0.00     0.00   0.00   0.00     0.00  -0.00  -0.00
     9   6    -0.05  -0.02  -0.01     0.05   0.02   0.01     0.01  -0.02   0.06
    10   6    -0.05   0.02  -0.01    -0.05   0.02  -0.01    -0.01  -0.02  -0.06
    11   1    -0.00  -0.00  -0.00    -0.00  -0.00  -0.00     0.00  -0.00   0.00
    12   1    -0.00   0.00   0.00    -0.00   0.00  -0.00    -0.00   0.00   0.01
    13   1    -0.00   0.03  -0.01    -0.00   0.03  -0.01    -0.00  -0.07   0.03
    14   1    -0.00  -0.03  -0.01     0.00   0.03   0.01     0.00  -0.07  -0.03
    15   1    -0.00  -0.00   0.00     0.00   0.00   0.00     0.00   0.00  -0.01
    16   1    -0.00  -0.00   0.01    -0.00  -0.00   0.01     0.01   0.01  -0.02
    17   1    -0.00   0.00  -0.00     0.00  -0.00   0.00    -0.00  -0.00  -0.00
    18   1    -0.00   0.00   0.01     0.00  -0.00  -0.01    -0.01   0.01   0.02
    19   1     0.58   0.24   0.30    -0.58  -0.23  -0.30    -0.10  -0.05  -0.04
    20   1    -0.03   0.05  -0.12     0.03  -0.05   0.12    -0.07   0.30  -0.62
    21   1     0.58  -0.23   0.30     0.58  -0.24   0.30     0.10  -0.05   0.04
    22   1    -0.03  -0.05  -0.12    -0.03  -0.05  -0.12     0.07   0.30   0.62
                     52                     53                     54
                      A                      A                      A
 Frequencies --   3077.4499              3098.3895              3108.8135
 Red. masses --      1.0907                 1.0881                 1.0879
 Frc consts  --      6.0860                 6.1543                 6.1947
 IR Inten    --     43.7967                13.7672                64.3814
  Atom  AN      X      Y      Z        X      Y      Z        X      Y      Z
     1   6    -0.00   0.00  -0.00     0.00  -0.00   0.00     0.00   0.00   0.00
     2   6    -0.00  -0.00   0.00     0.00   0.00  -0.00     0.00   0.00  -0.00
     3   6    -0.00  -0.00   0.00    -0.00  -0.05   0.03    -0.00  -0.05   0.03
     4   6    -0.00   0.00   0.00    -0.00   0.05   0.03     0.00  -0.05  -0.03
     5   6    -0.00   0.00   0.00     0.00  -0.00  -0.00    -0.00   0.00   0.00
     6   6    -0.00  -0.00   0.00    -0.00  -0.00   0.00    -0.00  -0.00   0.00
     7   6    -0.00  -0.00  -0.00     0.00   0.00   0.00    -0.00   0.00  -0.00
     8   6    -0.00   0.00   0.00    -0.00   0.00   0.00     0.00  -0.00  -0.00
     9   6    -0.01   0.02  -0.06     0.00  -0.00   0.00    -0.00  -0.00   0.01
    10   6    -0.01  -0.02  -0.06     0.00   0.00   0.00     0.00  -0.00  -0.01
    11   1     0.00   0.00   0.00    -0.00   0.00   0.00    -0.00   0.00   0.00
    12   1     0.00  -0.00   0.00    -0.02  -0.00   0.03    -0.02  -0.00   0.04
    13   1     0.00   0.03  -0.02     0.02   0.62  -0.32     0.01   0.62  -0.32
    14   1     0.00  -0.03  -0.02     0.02  -0.62  -0.32    -0.01   0.62   0.32
    15   1     0.00   0.00   0.00    -0.02   0.00   0.03     0.02  -0.00  -0.04
    16   1     0.02   0.01  -0.02     0.00   0.00  -0.01     0.01   0.01  -0.01
    17   1     0.00  -0.00   0.00    -0.00  -0.00   0.00     0.00   0.00  -0.00
    18   1     0.02  -0.01  -0.02     0.00  -0.00  -0.01    -0.01   0.01   0.01
    19   1     0.10   0.05   0.04    -0.03  -0.01  -0.01     0.02   0.01   0.01
    20   1     0.07  -0.30   0.62    -0.00   0.01  -0.03    -0.01   0.03  -0.07
    21   1     0.10  -0.05   0.04    -0.03   0.01  -0.01    -0.02   0.01  -0.01
    22   1     0.07   0.30   0.62    -0.00  -0.01  -0.03     0.01   0.03   0.07
                     55                     56                     57
                      A                      A                      A
 Frequencies --   3182.5637              3184.2420              3209.3373
 Red. masses --      1.0885                 1.0888                 1.0967
 Frc consts  --      6.4959                 6.5047                 6.6555
 IR Inten    --     17.5214                13.9527                15.8522
  Atom  AN      X      Y      Z        X      Y      Z        X      Y      Z
     1   6     0.00   0.05   0.02    -0.00  -0.05  -0.02    -0.00   0.02   0.01
     2   6     0.00  -0.00  -0.01    -0.00   0.00   0.01     0.00  -0.00  -0.01
     3   6     0.00   0.00  -0.00    -0.00  -0.00   0.00    -0.00  -0.00   0.00
     4   6     0.00  -0.00  -0.00     0.00  -0.00  -0.00    -0.00   0.00   0.00
     5   6     0.00   0.00  -0.01     0.00   0.00  -0.01     0.00   0.00  -0.01
     6   6    -0.01  -0.01   0.01     0.01   0.01  -0.01     0.03   0.03  -0.04
     7   6     0.00  -0.05   0.02     0.00  -0.05   0.02    -0.00  -0.02   0.01
     8   6    -0.01   0.01   0.01    -0.01   0.01   0.01     0.03  -0.03  -0.04
     9   6     0.00  -0.00   0.00     0.00  -0.00   0.00     0.00   0.00  -0.00
    10   6     0.00   0.00   0.00    -0.00  -0.00  -0.00     0.00  -0.00  -0.00
    11   1    -0.01  -0.61  -0.19     0.01   0.61   0.19    -0.00  -0.23  -0.08
    12   1    -0.04   0.01   0.10     0.04  -0.01  -0.09    -0.06   0.01   0.12
    13   1    -0.00  -0.01   0.00     0.00   0.01  -0.00     0.00   0.00  -0.00
    14   1    -0.00   0.01   0.00    -0.00   0.01   0.00     0.00  -0.00  -0.00
    15   1    -0.05  -0.01   0.10    -0.04  -0.01   0.09    -0.06  -0.01   0.13
    16   1     0.14   0.15  -0.18    -0.14  -0.16   0.19    -0.32  -0.34   0.43
    17   1    -0.01   0.61  -0.19    -0.01   0.61  -0.19    -0.00   0.24  -0.08
    18   1     0.14  -0.15  -0.18     0.14  -0.16  -0.19    -0.33   0.36   0.44
    19   1    -0.00   0.00  -0.00    -0.00  -0.00  -0.00    -0.00  -0.00  -0.00
    20   1    -0.00   0.00  -0.01    -0.00   0.01  -0.01     0.00  -0.01   0.02
    21   1    -0.00  -0.00   0.00     0.00  -0.00   0.00    -0.00   0.00  -0.00
    22   1    -0.00  -0.00  -0.01     0.00   0.01   0.01     0.00   0.01   0.02
                     58                     59                     60
                      A                      A                      A
 Frequencies --   3209.5750              3233.5483              3234.7639
 Red. masses --      1.0971                 1.0964                 1.0974
[...]
 ,-0.00053280,-0.00037315,0.12669786,-0.01733142,0.31124612,0.00290815,
 -0.00002746,0.00117534,-0.00117242,-0.00421248,0.00211883,-0.03967818,
 0.00501441,-0.01087036,-0.00844700,0.01917868,0.01643505,-0.00322162,-
 0.00385412,0.00025424,-0.00339012,0.00067451,-0.00466494,-0.00060469,0
 .00111330,-0.00125487,-0.00059134,0.00100255,0.00142545,0.00205439,0.0
 0051136,0.00071667,0.00062327,-0.02098571,-0.00710514,0.00009298,-0.00
 022923,0.00007113,-0.00084155,0.00014544,0.00069725,0.04894809,0.00015
 700,-0.00396796,0.00178461,-0.00098956,-0.01723371,-0.01364501,-0.0000
 7809,-0.26033154,-0.11011532,-0.00094711,-0.00009376,0.00071079,-0.000
 37404,0.00073725,-0.00008598,0.00043375,-0.00054993,0.00071235,-0.0000
 9981,0.00067690,0.00023084,-0.00020608,-0.00033486,0.00049638,0.000051
 02,-0.00006624,-0.00028741,0.00103409,0.00052325,0.00111547,-0.0012710
 0,-0.00047485,-0.00018719,-0.00016540,0.00080458,0.00063843,0.00291401
 ,0.27873134,-0.00119737,0.00319585,-0.00335848,0.00182764,0.02038850,0
 .01168285,-0.00955950,-0.11363444,-0.10233812,0.00401636,-0.01330057,-
 0.00998686,0.00261102,0.00125764,-0.00012042,-0.00319344,-0.00099294,-
 0.00214505,-0.00026577,-0.00026838,-0.00064117,-0.00003770,0.00090970,
 -0.00018830,-0.00079114,-0.00011935,0.00024642,0.00439940,-0.01466068,
 -0.00640294,0.00105317,0.00053195,0.00024899,0.00051598,-0.00138404,0.
 00007871,0.00231663,0.11848188,0.11083330,-0.00060483,-0.00111353,-0.0
 0125495,-0.00322153,0.00385412,0.00025382,-0.00844693,-0.01917701,0.01
 643715,-0.03967781,-0.00501210,-0.01087165,-0.00117226,0.00421270,0.00
 211837,-0.00059149,-0.00100256,0.00142577,0.00290798,0.00002775,0.0011
 7515,-0.00339019,-0.00067491,-0.00466474,0.00062283,0.02098507,-0.0071
 0758,0.00205442,-0.00051130,0.00071672,0.00037214,-0.00022408,-0.00034
 518,0.00015907,-0.00027259,0.00007206,0.00148136,0.00005738,-0.0006209
 8,0.04894852,0.00009976,0.00067689,-0.00023106,0.00037429,0.00073718,0
 .00008590,0.00094743,-0.00009262,-0.00071164,0.00008040,-0.26030822,0.
 11013274,0.00099008,-0.01723446,0.01364799,0.00020609,-0.00033506,-0.0
 0049634,-0.00015707,-0.00396844,-0.00178453,-0.00043414,-0.00054987,-0
 .00071253,-0.00103363,0.00052492,-0.00111626,-0.00005104,-0.00006623,0
 .00028746,-0.00005616,0.00006232,0.00004682,0.00004102,-0.00003415,-0.
 00003441,-0.00005745,0.00104530,0.00007011,-0.00291731,0.27870641,-0.0
 0026573,0.00026827,-0.00064118,0.00261099,-0.00125778,-0.00012023,0.00
 401637,0.01329980,-0.00998849,-0.00956149,0.11365194,-0.10236187,0.001
 82789,-0.02038555,0.01168339,-0.00003770,-0.00090975,-0.00018824,-0.00
 119739,-0.00319576,-0.00335786,-0.00319331,0.00099260,-0.00214497,0.00
 439909,0.01465990,-0.00640440,-0.00079122,0.00011942,0.00024642,-0.000
 15198,0.00005677,0.00015206,-0.00007056,0.00018487,-0.00002008,-0.0006
 2099,-0.00007022,0.00002084,0.00231897,-0.11850028,0.11085871,-0.00120
 343,-0.00101851,-0.00337460,0.00264730,0.00233895,0.00144000,-0.001415
 62,-0.00110104,0.00137973,0.00248009,0.00023520,0.00178117,-0.07013722
 ,0.00307185,-0.11754505,-0.00384374,-0.00120929,0.00535645,-0.00501534
 ,-0.00297303,-0.01477641,0.00131537,0.00433160,0.00042816,0.00104083,-
 0.00021424,-0.00117678,0.00041708,-0.00048336,-0.00009614,0.00003250,-
 0.00002350,-0.00009612,-0.00043836,0.00020225,0.00007470,0.00015908,-0
 .00004102,-0.00007056,-0.00084156,0.00016544,0.00051596,0.07631690,-0.
 00031817,-0.00023157,-0.00109836,0.00117211,0.00004889,0.00087683,-0.0
 0076195,-0.00078774,-0.00061914,-0.01008372,0.00549397,-0.01824537,0.0
 0580423,-0.05463465,-0.01834971,-0.00112975,-0.00058634,0.00170196,0.0
 0485844,0.00815506,0.01892131,0.00271344,-0.00322970,0.00302912,0.0010
 9484,-0.00341284,-0.00338823,0.00051323,0.00011573,-0.00046991,0.00004
 453,-0.00000293,-0.00000124,-0.00020225,0.00004688,0.00004100,0.000272
 64,-0.00003416,-0.00018489,-0.00014540,0.00080470,0.00138398,-0.002898
 71,0.04684410,0.00029952,0.00034341,0.00115932,-0.00101456,-0.00081695
 ,-0.00025746,0.00041036,0.00011636,-0.00037624,-0.00608292,0.00476424,
 -0.00527824,-0.11978451,-0.01586552,-0.30018851,0.00149881,0.00086896,
 -0.00163997,-0.00026990,-0.00561390,-0.00275498,-0.00223046,0.00008601
 ,-0.00096869,0.00030544,-0.00088083,-0.00084983,-0.00058121,0.00038066
 ,-0.00027791,-0.00000072,0.00000088,0.00002081,0.00007474,-0.00004101,
 0.00003458,0.00007203,0.00003441,-0.00002007,0.00069727,-0.00063849,0.
 00007866,0.12669621,0.01735852,0.31124560,-0.00093732,-0.00625145,-0.0
 0326526,0.00277329,0.00017785,-0.00468783,-0.00078659,-0.00040547,-0.0
 0124198,0.00056882,0.00008063,0.00042375,-0.00020358,0.00018508,-0.000
 67458,-0.10561784,-0.08109067,-0.11215437,0.00053801,-0.00058644,0.000
 54068,-0.00015159,-0.00005622,-0.00058734,0.00016870,0.00059970,0.0000
 0240,0.00281286,0.00294584,0.00396229,-0.00250043,0.00076373,0.0016121
 6,0.00028212,-0.00113696,-0.00031963,0.00041121,-0.00011679,-0.0007218
 8,-0.00004693,-0.00011998,-0.00007733,0.00000498,-0.00014355,0.0002251
 1,0.10307371,0.00722335,0.01020296,0.00843356,0.00066691,-0.00101909,0
 .00322471,0.00133561,-0.00550233,-0.00044577,0.00041743,-0.00004296,-0
 .00017676,0.00025303,-0.00019144,-0.00009176,-0.07993434,-0.14213891,-
 0.10669734,-0.00015036,0.00027274,-0.00012219,-0.00025509,-0.00008277,
 0.00032386,-0.00004004,0.00014760,-0.00002046,-0.01425485,-0.00459767,
 -0.01724383,-0.00007832,0.00021522,-0.00113197,0.00012907,0.00090499,0
 .00028342,-0.00157573,-0.00000863,-0.00087883,0.00003518,0.00004552,-0
 .00004826,-0.00013485,-0.00001783,0.00014053,0.08577637,0.14129166,-0.
 01065400,-0.01779727,-0.00794482,-0.00303469,0.00206994,-0.00236732,0.
 00061456,0.00206823,0.00032258,-0.00012085,0.00001621,-0.00028597,0.00
 006893,0.00008573,0.00072702,-0.10730415,-0.10235247,-0.17963827,-0.00
 033886,0.00022054,-0.00034286,0.00014811,0.00019460,0.00036613,-0.0000
 4380,-0.00035484,0.00002408,0.00232566,0.00312797,0.00245470,0.0019480
 9,0.00010841,-0.00029430,-0.00084929,-0.00064600,-0.00017735,-0.000082
 40,-0.00000279,0.00077676,-0.00001909,0.00007216,0.00010395,-0.0001227
 2,0.00000836,0.00002271,0.11749112,0.11405072,0.18577243,0.00039344,-0
 .00015584,0.00040998,-0.00034426,-0.00005457,0.00009478,-0.00008941,-0
 .00135270,-0.00051147,0.00359652,0.00360601,-0.00507832,0.00110223,0.0
 1491392,0.00600708,0.00058743,0.00007581,-0.00075313,-0.04152576,0.005
 30913,-0.00382580,0.00324017,-0.01259509,-0.00335364,0.00454973,0.0002
 2503,-0.00586888,-0.00005786,0.00002873,0.00002043,-0.00014897,-0.0000
 3115,0.00012306,0.00003249,-0.00004452,-0.00000071,0.00037210,0.000056
 14,-0.00015196,0.00009296,0.00127111,0.00105304,-0.00185995,-0.0011168
 0,0.00078664,-0.00010991,0.00002403,0.00002296,0.03268538,-0.00005851,
 -0.00020865,-0.00012677,-0.00019123,0.00023753,-0.00031331,-0.00040558
 ,-0.00052025,0.00025610,0.00174037,-0.00199077,0.00113545,-0.00309712,
 -0.01161853,-0.01015802,-0.00005506,0.00037079,0.00035064,0.00886312,-
 0.31204438,-0.08129490,0.00184376,-0.00356864,0.00133181,0.00164076,0.
 00043675,-0.00152374,0.00000336,-0.00004847,-0.00006322,0.00003115,0.0
 0015505,-0.00006270,0.00002348,-0.00000292,-0.00000087,0.00022405,0.00
 006231,-0.00005677,0.00022924,-0.00047485,-0.00053184,-0.00021238,0.00
 036353,0.00053272,0.00014161,0.00000710,-0.00002942,-0.00969937,0.3289
 5169,-0.00016706,-0.00007815,-0.00007623,0.00032157,-0.00005979,-0.000
 03608,0.00047180,0.00101213,0.00009066,-0.00468108,0.00193825,0.000285
 81,0.00144154,0.01291038,0.00996941,-0.00020460,-0.00003069,0.00056022
 ,-0.00626477,-0.07928596,-0.08232223,0.00132288,-0.02452717,0.00190759
 ,-0.00373659,-0.00168402,-0.00235011,0.00011582,-0.00003297,-0.0000992
 7,0.00012306,0.00006268,-0.00007563,-0.00009612,0.00000124,0.00002080,
 -0.00034519,-0.00004681,0.00015206,0.00007111,0.00018723,0.00024901,0.
 00145494,-0.00051075,-0.00037313,0.00001261,-0.00003474,-0.00002055,0.
 00858771,0.09052882,0.07257214,0.00053792,0.00058639,0.00054053,-0.000
 20345,-0.00018517,-0.00067436,0.00056888,-0.00008059,0.00042380,-0.000
 78636,0.00040551,-0.00124203,0.00277350,-0.00017841,-0.00468804,-0.000
 15159,0.00005617,-0.00058719,-0.00093760,0.00625158,-0.00326645,-0.105
 62523,0.08108128,-0.11216469,0.00281253,-0.00294516,0.00396179,0.00016
 876,-0.00059975,0.00000239,-0.00010989,-0.00014159,0.00001262,0.000004
 94,0.00014357,0.00022507,-0.00004692,0.00011995,-0.00007733,0.00041108
 ,0.00011671,-0.00072189,0.00028197,0.00113699,-0.00031977,0.00005015,0
 .00002573,-0.00003309,-0.00250048,-0.00076368,0.00161235,0.10308142,0.
 00015033,0.00027272,0.00012214,-0.00025297,-0.00019146,0.00009187,-0.0
 0041736,-0.00004294,0.00017673,-0.00133544,-0.00550243,0.00044632,-0.0
 0066720,-0.00101969,-0.00322492,0.00025514,-0.00008280,-0.00032383,-0.
 00722481,0.01020386,-0.00843543,0.07992586,-0.14211389,0.10668871,0.01
 425540,-0.00459602,0.01724452,0.00004004,0.00014761,0.00002044,-0.0000
 2403,0.00000710,0.00003474,0.00013481,-0.00001783,-0.00014050,-0.00003
 518,0.00004552,0.00004826,0.00157574,-0.00000852,0.00087884,-0.0001291
 7,0.00090506,-0.00028353,-0.00002574,0.00003836,0.00000992,0.00007845,
 0.00021531,0.00113197,-0.08576697,0.14126449,-0.00033883,-0.00022057,-
 0.00034281,0.00006887,-0.00008558,0.00072691,-0.00012087,-0.00001621,-
 0.00028605,0.00061466,-0.00206772,0.00032276,-0.00303475,-0.00207003,-
 0.00236654,0.00014809,-0.00019457,0.00036609,-0.01065377,0.01779501,-0
 .00794537,-0.10731505,0.10234395,-0.17965494,0.00232440,-0.00312725,0.
 00245339,-0.00004385,0.00035489,0.00002408,0.00002296,0.00002941,-0.00
 002055,-0.00012269,-0.00000837,0.00002271,-0.00001909,-0.00007214,0.00
 010395,-0.00008252,0.00000287,0.00077668,-0.00084932,0.00064578,-0.000
 17732,-0.00003309,-0.00000992,0.00002755,0.00194819,-0.00010838,-0.000
 29451,0.11750314,-0.11404121,0.18579045,-0.00045341,0.00012699,-0.0001
 7990,-0.00033826,0.00133855,-0.00120542,-0.00322171,-0.00138006,-0.000
 65112,-0.01946901,-0.00762056,0.00858949,-0.00000323,0.00160320,-0.000
 01513,-0.00066033,0.00013976,-0.00023051,0.00097299,0.00043185,0.00081
 683,0.00337523,-0.00199417,-0.00113819,-0.21789504,-0.06882093,0.08492
 398,-0.00066138,-0.00097106,0.00051294,-0.00001313,-0.00009256,0.00001
 039,0.00019614,-0.00000762,0.00001533,0.00032833,0.00008171,-0.0001458
 8,0.00093697,0.00065702,0.00019795,-0.00002691,-0.00008927,-0.00016569
 ,0.00011561,-0.00004158,-0.00011356,-0.00020518,-0.00015034,0.00004148
 ,-0.00044887,-0.00053516,-0.00001745,0.24085104,-0.00015363,0.00030123
 ,-0.00021442,-0.00065848,-0.00038055,0.00041305,0.00116592,0.00017001,
 0.00131191,0.00753435,0.00210095,-0.00279161,-0.00068879,0.00043053,0.
 00035237,0.00012557,-0.00041185,-0.00057374,0.00198507,-0.00240974,0.0
 0337458,-0.02669795,-0.01787088,0.00771450,-0.07461713,-0.06762834,0.0
 3254240,0.00048540,0.00007886,-0.00014845,0.00002044,0.00000615,0.0000
 2728,0.00014370,-0.00007123,0.00007584,-0.00016440,0.00015407,0.000213
 80,-0.00013381,0.00033577,-0.00032129,-0.00000242,0.00004002,0.0000168
 0,-0.00015703,0.00007101,0.00009276,0.00126668,0.00021683,-0.00081495,
 0.00067331,-0.00026493,0.00000849,0.07834350,0.07984786,-0.00065890,-0
 .00087879,-0.00177968,0.00118397,0.00208228,-0.00029721,-0.00214482,-0
 .00077013,0.00013810,-0.01537528,-0.00683533,0.00503779,0.00181526,-0.
 00101314,0.00164205,-0.00137550,-0.00034298,0.00169516,-0.00276011,0.0
 0057693,-0.00237149,0.00138067,0.00410112,0.00051068,0.08678239,0.0297
 4642,-0.08600092,0.00009953,-0.00029944,-0.00007257,0.00006089,-0.0000
 0689,-0.00007732,-0.00044125,0.00010755,0.00042972,0.00002334,0.000182
 32,0.00007890,0.00062790,0.00011590,0.00095330,-0.00002436,0.00004907,
 -0.00015567,-0.00006414,-0.00000161,0.00006385,0.00030245,0.00006891,-
 0.00022469,-0.00015918,0.00041563,0.00020341,-0.09333363,-0.03651797,0
 .09202205,0.00034063,0.00003142,0.00038243,-0.00053841,-0.00070093,0.0
 0006635,0.00050793,-0.00056206,-0.00183240,0.00141644,-0.01229300,-0.0
 1835680,-0.00373858,0.00208101,-0.00391634,0.00048362,0.00023535,-0.00
 019835,0.00184758,-0.00009147,0.00053476,-0.00204940,-0.00240387,0.000
 85229,-0.05031554,0.01775855,0.03108731,0.00000017,0.00035702,0.000064
 75,0.00000797,0.00004601,0.00003000,-0.00027419,-0.00039434,0.00005391
 ,-0.00021044,0.00033147,-0.00003292,-0.00011167,0.00029063,-0.00007185
 ,0.00016406,-0.00112283,-0.00068557,0.00007027,0.00000787,-0.00001068,
 0.00019448,-0.00015418,-0.00012186,-0.00006666,-0.00003546,0.00012524,
 -0.00334797,0.01136391,0.02405480,0.05563725,-0.00049091,-0.00011820,-
 0.00059159,0.00030894,0.00002005,-0.00037665,-0.00018977,0.00046230,0.
 00034153,-0.00153651,0.00323302,0.00731074,0.00239799,-0.00092994,0.00
 062521,-0.00021793,-0.00035895,0.00035787,0.00069471,-0.00590263,-0.00
 059889,0.00198966,-0.00953768,-0.02910381,0.01501058,-0.09418778,-0.09
 884819,0.00001155,-0.00008306,0.00011034,0.00002799,-0.00001125,-0.000
 01176,-0.00033297,-0.00016399,0.00044121,-0.00009513,0.00005146,0.0000
 8165,-0.00005203,-0.00007205,0.00001977,-0.00009299,0.00035513,0.00001
 365,-0.00004929,0.00001641,0.00005529,-0.00175659,-0.00053433,-0.00065
 117,-0.00014212,0.00065307,0.00098957,-0.00089339,0.00498319,0.0094207
 0,-0.01464848,0.10199285,0.00002230,-0.00023162,-0.00048675,0.00053541
 ,0.00082210,0.00097916,0.00158832,-0.00032376,-0.00029312,0.00364427,-
 0.00792765,-0.01335844,-0.00198976,0.00018730,-0.00182286,0.00038580,-
 0.00035250,0.00053170,0.00014466,0.00099732,-0.00104339,-0.00059552,0.
 00196062,0.00492870,0.02760427,-0.10033300,-0.25545731,0.00028487,0.00
 063695,-0.00005958,0.00006310,-0.00000457,-0.00005786,-0.00014273,0.00
 009366,0.00044348,-0.00055069,0.00046177,0.00051884,-0.00042025,0.0002
 2047,-0.00049353,-0.00041115,-0.00094725,-0.00011688,-0.00020947,0.000
 06613,0.00013862,0.00006362,0.00005404,0.00019989,-0.00007405,-0.00079
 616,0.00006760,0.00226203,-0.00497382,-0.01162229,-0.03212889,0.110408
 23,0.27695602,0.00097313,-0.00043166,0.00081704,-0.00000320,-0.0016032
 8,-0.00001500,-0.01946898,0.00762068,0.00858853,-0.00322178,0.00137998
 ,-0.00065121,-0.00033832,-0.00133862,-0.00120531,0.00337418,0.00199465
 ,-0.00113803,-0.00045340,-0.00012707,-0.00017981,-0.00066027,-0.000139
 82,-0.00023056,-0.00066141,0.00097110,0.00051290,-0.21790122,0.0688243
 2,0.08491809,-0.00020515,0.00015033,0.00004144,-0.00002690,0.00008925,
 -0.00016571,0.00093694,-0.00065698,0.00019799,0.00032835,-0.00008172,-
 0.00014589,0.00019616,0.00000763,0.00001533,-0.00044885,0.00053514,-0.
 00001752,-0.00001314,0.00009256,0.00001038,0.00011562,0.00004158,-0.00
 011358,-0.00000407,0.00013322,-0.00001287,-0.00002780,-0.00000736,-0.0
 0016107,0.24085788,-0.00198505,-0.00241003,-0.00337461,0.00068887,0.00
 043065,-0.00035219,-0.00753645,0.00210181,0.00279209,-0.00116620,0.000
 16989,-0.00131201,0.00065864,-0.00038090,-0.00041303,0.02669854,-0.017
 87093,-0.00771261,0.00015364,0.00030136,0.00021421,-0.00012565,-0.0004
 1182,0.00057390,-0.00048542,0.00007892,0.00014848,0.07462059,-0.067629
 36,-0.03254067,-0.00126661,0.00021686,0.00081480,0.00000243,0.00004001
 ,-0.00001683,0.00013391,0.00033573,0.00032134,0.00016440,0.00015404,-0
 .00021383,-0.00014374,-0.00007125,-0.00007579,-0.00067331,-0.00026496,
 -0.00000846,-0.00002044,0.00000615,-0.00002728,0.00015701,0.00007101,-
 0.00009275,-0.00013323,0.00023634,-0.00019981,-0.00003257,0.00006470,-
 0.00001270,-0.07834731,0.07984934,-0.00275988,-0.00057699,-0.00237111,
 0.00181491,0.00101338,0.00164203,-0.01537491,0.00683518,0.00503685,-0.
 00214476,0.00077013,0.00013809,0.00118390,-0.00208229,-0.00029698,0.00
 137852,-0.00409960,0.00051162,-0.00065889,0.00087858,-0.00177969,-0.00
 137536,0.00034306,0.00169499,0.00009953,0.00029945,-0.00007259,0.08677
 594,-0.02974466,-0.08599409,0.00030257,-0.00006895,-0.00022474,-0.0000
 2431,-0.00004911,-0.00015568,0.00062792,-0.00011585,0.00095325,0.00002
 333,-0.00018234,0.00007895,-0.00044127,-0.00010751,0.00042973,-0.00015
 910,-0.00041558,0.00020344,0.00006088,0.00000688,-0.00007732,-0.000064
 15,0.00000161,0.00006386,-0.00001287,0.00019977,-0.00014499,0.00001886
 ,0.00000074,-0.00002819,-0.09332694,0.03651549,0.09201414,0.00184764,0
 .00009177,0.00053471,-0.00373839,-0.00208144,-0.00391607,0.00141623,0.
 01229131,-0.01835749,0.00050784,0.00056188,-0.00183247,-0.00053843,0.0
 0070095,0.00006626,-0.00204945,0.00240414,0.00085108,0.00034060,-0.000
 03139,0.00038239,0.00048359,-0.00023534,-0.00019830,0.00000017,-0.0003
 5701,0.00006479,-0.05031530,-0.01775519,0.03108774,0.00019443,0.000154
 19,-0.00012189,0.00016407,0.00112274,-0.00068569,-0.00011162,-0.000290
 64,-0.00007175,-0.00021049,-0.00033148,-0.00003291,-0.00027419,0.00039
 434,0.00005386,-0.00006668,0.00003544,0.00012528,0.00000798,-0.0000460
 0,0.00003001,0.00007026,-0.00000787,-0.00001068,-0.00002780,0.00003257
 ,0.00001885,0.00001026,0.00006405,0.00008494,-0.00334780,-0.01136204,0
 .02405608,0.05563707,-0.00069442,-0.00590273,0.00059943,-0.00239825,-0
 .00093014,-0.00062546,0.00153688,0.00323351,-0.00731283,0.00018989,0.0
 0046228,-0.00034163,-0.00030898,0.00001992,0.00037680,-0.00198965,-0.0
 0953508,0.02910498,0.00049097,-0.00011809,0.00059152,0.00021796,-0.000
 35896,-0.00035780,-0.00001151,-0.00008312,-0.00011034,-0.01500748,-0.0
 9417087,0.09883421,0.00175654,-0.00053420,0.00065134,0.00009294,0.0003
 5526,-0.00001373,0.00005202,-0.00007205,-0.00001978,0.00009505,0.00005
 142,-0.00008161,0.00033297,-0.00016407,-0.00044111,0.00014210,0.000653
 05,-0.00098961,-0.00002798,-0.00001125,0.00001175,0.00004926,0.0000164
 0,-0.00005528,0.00000734,0.00006470,-0.00000074,-0.00006405,0.00006767
 ,-0.00000554,0.00089338,0.00498243,-0.00942139,0.01464501,0.10197394,0
 .00014478,-0.00099685,-0.00104335,-0.00198970,-0.00018743,-0.00182283,
 0.00364418,0.00792643,-0.01335865,0.00158828,0.00032376,-0.00029313,0.
 00053548,-0.00082204,0.00097921,-0.00059526,-0.00195937,0.00492617,0.0
 0002227,0.00023160,-0.00048681,0.00038577,0.00035256,0.00053167,0.0002
 8487,-0.00063694,-0.00005951,0.02760429,0.10031900,-0.25547454,0.00006
 343,-0.00005397,0.00019986,-0.00041115,0.00094722,-0.00011699,-0.00042
 020,-0.00022054,-0.00049346,-0.00055068,-0.00046175,0.00051890,-0.0001
 4282,-0.00009356,0.00044348,-0.00007410,0.00079610,0.00006762,0.000063
 10,0.00000457,-0.00005786,-0.00020947,-0.00006613,0.00013864,-0.000161
 07,0.00001269,-0.00002819,0.00008495,0.00000554,0.00007618,0.00226179,
 0.00497228,-0.01162157,-0.03212873,-0.11039317,0.27697516\\-0.00045738
 ,-0.00030813,-0.00060640,-0.00220025,0.00074205,0.00056392,-0.00266108
 ,-0.00009462,0.00179863,0.00266122,-0.00009391,-0.00179835,0.00220088,
 0.00074100,-0.00056417,-0.00225859,-0.00015203,0.00066853,0.00045731,-
 0.00030662,0.00060667,0.00225743,-0.00015167,-0.00066920,0.00119101,-0
 .00015888,-0.00037462,-0.00119105,-0.00015882,0.00037482,0.00012088,-0
 .00006268,-0.00011609,-0.00001368,-0.00003662,-0.00001365,-0.00004814,
 0.00008258,0.00003608,0.00004821,0.00008233,-0.00003601,0.00001369,-0.
 00003654,0.00001375,-0.00018084,0.00000031,0.00004309,-0.00012087,-0.0
 0006318,0.00011597,0.00018108,0.,-0.00004268,0.00014666,0.00003091,0.0
 0007808,-0.00001041,-0.00004322,-0.00002525,-0.00014648,0.00003088,-0.
 00007818,0.00001041,-0.00004315,0.00002505\\\@


 THE VALUE OF PHILOSOPHY IS, IN FACT, TO BE SOUGHT LARGELY IN ITS
 VERY UNCERTAINTY.  THE MAN WHO HAS NO TINCTURE OF PHILOSOPHY GOES
 THROUGH LIFE IMPRISONED IN THE PREJUDICES DERIVED FROM COMMON SENSE,
 FROM THE HABITUAL BELIEFS OF HIS AGE OR HIS NATION, AND FROM
 CONVICTIONS WHICH HAVE GROWN UP IN HIS MIND WITHOUT THE CO-OPERATION
 OR CONSENT OF HIS DELIBERATE REASON.  TO SUCH A MAN THE WORLD TENDS
 TO BE DEFINITE, FINITE, OBVIOUS; COMMON OBJECTS ROUSE NO QUESTIONS,
 AND UNFAMILIAR POSSIBILITIES ARE CONTEMPTUOUSLY REJECTED.

                             -- BERTRAND RUSSELL
 Job cpu time:       0 days  1 hours  6 minutes  6.6 seconds.
 Elapsed time:       0 days  0 hours  0 minutes 42.4 seconds.
 File lengths (MBytes):  RWF=    182 Int=      0 D2E=      0 Chk=     11 Scr=      1
 Normal termination of Gaussian 16 at Mon Jul 28 00:20:46 2025.
