 Entering Gaussian System, Link 0=g16
 Initial command:
 /home/hongchang/data/software/Gaussian/g16/l1.exe "/home/hongchang/data/software/Gaussian/g16/scratch/Gau-1372935.inp" -scrdir="/home/hongchang/data/software/Gaussian/g16/scratch/"
 Entering Link 1 = /home/hongchang/data/software/Gaussian/g16/l1.exe PID=   1372936.
  
 Copyright (c) 1988,1990,1992,1993,1995,1998,2003,2009,2016,
            Gaussian, Inc.  All Rights Reserved.
  
 This is part of the Gaussian(R) 16 program.  It is based on
 the Gaussian(R) 09 system (copyright 2009, Gaussian, Inc.),
 the Gaussian(R) 03 system (copyright 2003, Gaussian, Inc.),
 the Gaussian(R) 98 system (copyright 1998, Gaussian, Inc.),
 the Gaussian(R) 94 system (copyright 1995, Gaussian, Inc.),
 the Gaussian 92(TM) system (copyright 1992, Gaussian, Inc.),
 the Gaussian 90(TM) system (copyright 1990, Gaussian, Inc.),
 the Gaussian 88(TM) system (copyright 1988, Gaussian, Inc.),
 the Gaussian 86(TM) system (copyright 1986, Carnegie Mellon
 University), and the Gaussian 82(TM) system (copyright 1983,
 Carnegie Mellon University). Gaussian is a federally registered
 trademark of Gaussian, Inc.
  
 This software contains proprietary and confidential information,
 including trade secrets, belonging to Gaussian, Inc.
  
 This software is provided under written license and may be
 used, copied, transmitted, or stored only in accord with that
 written license.
  
 The following legend is applicable only to US Government
 contracts under FAR:
  
                    RESTRICTED RIGHTS LEGEND
  
 Use, reproduction and disclosure by the US Government is
 subject to restrictions as set forth in subparagraphs (a)
 and (c) of the Commercial Computer Software - Restricted
 Rights clause in FAR 52.227-19.
  
 Gaussian, Inc.
 340 Quinnipiac St., Bldg. 40, Wallingford CT 06492
  
  
 ---------------------------------------------------------------
 Warning -- This program may not be used in any manner that
 competes with the business of Gaussian, Inc. or will provide
 assistance to any competitor of Gaussian, Inc.  The licensee
 of this program is prohibited from giving any competitor of
 Gaussian, Inc. access to this program.  By using this program,
 the user acknowledges that Gaussian, Inc. is engaged in the
 business of creating and licensing software in the field of
 computational chemistry and represents and warrants to the
 licensee that it is not a competitor of Gaussian, Inc. and that
 it will not use this program in any manner prohibited above.
 ---------------------------------------------------------------
  

 Cite this work as:
 Gaussian 16, Revision A.03,
 M. J. Frisch, G. W. Trucks, H. B. Schlegel, G. E. Scuseria, 
 M. A. Robb, J. R. Cheeseman, G. Scalmani, V. Barone, 
 G. A. Petersson, H. Nakatsuji, X. Li, M. Caricato, A. V. Marenich, 
 J. Bloino, B. G. Janesko, R. Gomperts, B. Mennucci, H. P. Hratchian, 
 J. V. Ortiz, A. F. Izmaylov, J. L. Sonnenberg, D. Williams-Young, 
 F. Ding, F. Lipparini, F. Egidi, J. Goings, B. Peng, A. Petrone, 
 T. Henderson, D. Ranasinghe, V. G. Zakrzewski, J. Gao, N. Rega, 
 G. Zheng, W. Liang, M. Hada, M. Ehara, K. Toyota, R. Fukuda, 
 J. Hasegawa, M. Ishida, T. Nakajima, Y. Honda, O. Kitao, H. Nakai, 
 T. Vreven, K. Throssell, J. A. Montgomery, Jr., J. E. Peralta, 
 F. Ogliaro, M. J. Bearpark, J. J. Heyd, E. N. Brothers, K. N. Kudin, 
 V. N. Staroverov, T. A. Keith, R. Kobayashi, J. Normand, 
 K. Raghavachari, A. P. Rendell, J. C. Burant, S. S. Iyengar, 
 J. Tomasi, M. Cossi, J. M. Millam, M. Klene, C. Adamo, R. Cammi, 
 J. W. Ochterski, R. L. Martin, K. Morokuma, O. Farkas, 
 J. B. Foresman, and D. J. Fox, Gaussian, Inc., Wallingford CT, 2016.
 
 ******************************************
 Gaussian 16:  ES64L-G16RevA.03 25-Dec-2016
                28-Jul-2025 
 ******************************************
 %nprocshared=96
 Will use up to   96 processors via shared memory.
 %mem=600GB
 %chk=01_02_path1_9.chk
 -----------------------------------------------------------
 # freq b3lyp/6-311g(d,p) em=gd3bj scrf(solvent=Cis-Decalin)
 -----------------------------------------------------------
 1/10=4,30=1,38=1/1,3;
 2/12=2,17=6,18=5,40=1/2;
 3/5=4,6=6,7=101,11=2,25=1,30=1,70=2201,71=2,72=99,74=-5,124=41,140=1/1,2,3;
 4//1;
 5/5=2,38=5,53=99,98=1/2;
 8/6=4,10=90,11=11/1;
 11/6=1,8=1,9=11,15=111,16=1/1,2,10;
 10/6=1/2;
 6/7=2,8=2,9=2,10=2,28=1/1;
 7/8=1,10=1,25=1/1,2,3,16;
 1/10=4,30=1/3;
 99//99;
 -------------
 01_02_path1_9
 -------------
 Symbolic Z-matrix:
 Charge =  0 Multiplicity = 1
 C                    -1.36523  -1.1696    0.65039 
 C                    -0.75033  -0.08784   1.37421 
 C                    -0.89946   1.07212   0.64683 
 C                     0.89944   1.07206  -0.64693 
 C                     0.75031  -0.08798  -1.37419 
 C                    -1.94022  -0.69559  -0.48397 
 C                     1.36525  -1.16965  -0.65028 
 C                     1.94025  -0.69551   0.48403 
 C                     1.89283   0.80835   0.46287 
 C                    -1.89284   0.80828  -0.46296 
 H                    -1.31664  -2.20893   0.94817 
 H                    -0.24402  -0.18731   2.32288 
 H                    -0.69887   2.06567   1.02374 
 H                     0.69882   2.06557  -1.02394 
 H                     0.244    -0.18755  -2.32284 
 H                    -2.46108  -1.27601  -1.2326 
 H                     1.31668  -2.20901  -0.94794 
 H                     2.46113  -1.27585   1.2327 
 H                     2.87268   1.18914   0.13339 
 H                     1.67482   1.28309   1.42 
 H                    -2.87271   1.18907  -0.13352 
 H                    -1.67483   1.28293  -1.42012 
 

 GradGradGradGradGradGradGradGradGradGradGradGradGradGradGradGradGradGrad
 Berny optimization.
 Initialization pass.
 Trust Radius=3.00D-01 FncErr=1.00D-07 GrdErr=1.00D-07 EigMax=2.50D+02 EigMin=1.00D-04
 Number of steps in this run=      2 maximum allowed number of steps=      2.
 GradGradGradGradGradGradGradGradGradGradGradGradGradGradGradGradGradGrad

                          Input orientation:                          
 ---------------------------------------------------------------------
 Center     Atomic      Atomic             Coordinates (Angstroms)
 Number     Number       Type             X           Y           Z
 ---------------------------------------------------------------------
      1          6           0       -1.365227   -1.169600    0.650392
      2          6           0       -0.750329   -0.087844    1.374212
      3          6           0       -0.899464    1.072119    0.646828
      4          6           0        0.899436    1.072061   -0.646929
      5          6           0        0.750314   -0.087979   -1.374194
      6          6           0       -1.940222   -0.695590   -0.483972
      7          6           0        1.365249   -1.169649   -0.650275
      8          6           0        1.940254   -0.695514    0.484030
      9          6           0        1.892833    0.808354    0.462873
     10          6           0       -1.892843    0.808280   -0.462958
     11          1           0       -1.316635   -2.208926    0.948166
     12          1           0       -0.244017   -0.187310    2.322875
     13          1           0       -0.698870    2.065673    1.023739
     14          1           0        0.698823    2.065573   -1.023940
     15          1           0        0.243999   -0.187549   -2.322844
     16          1           0       -2.461076   -1.276013   -1.232596
     17          1           0        1.316675   -2.209006   -0.947944
     18          1           0        2.461132   -1.275849    1.232704
     19          1           0        2.872682    1.189137    0.133394
     20          1           0        1.674815    1.283088    1.419996
     21          1           0       -2.872706    1.189066   -0.133523
     22          1           0       -1.674830    1.282931   -1.420124
 ---------------------------------------------------------------------
                    Distance matrix (angstroms):
                    1          2          3          4          5
     1  C    0.000000
     2  C    1.439518   0.000000
     3  C    2.289596   1.377259   0.000000
     4  C    3.440463   2.855191   2.215818   0.000000
     5  C    3.121597   3.131400   2.855193   1.377260   0.000000
     6  C    1.357235   2.288678   2.342367   3.348851   2.898391
     7  C    3.024439   3.121621   3.440483   2.289597   1.439519
     8  C    3.343447   2.898435   3.348885   2.342369   2.288679
     9  C    3.816074   2.935986   2.810753   1.512627   2.341704
    10  C    2.330222   2.341702   1.512626   2.810738   2.935968
    11  H    1.082233   2.236338   3.321158   4.268510   3.763516
    12  H    2.240358   1.079911   2.196567   3.422461   3.829736
    13  H    3.324216   2.182456   1.081411   2.516541   3.533898
    14  H    4.186888   3.533890   2.516533   1.081411   2.182456
    15  H    3.520535   3.829733   3.422459   2.196567   1.079910
    16  H    2.181250   3.336742   3.388892   4.141195   3.427025
    17  H    3.290538   3.763541   4.268530   3.321159   2.236338
    18  H    3.871873   3.427078   4.141233   3.388893   3.336743
    19  H    4.877581   4.036895   3.808726   2.125161   2.899706
    20  H    3.981184   2.786193   2.696147   2.217639   3.246848
    21  H    2.906944   2.899698   2.125161   3.808718   4.036878
    22  H    3.224562   3.246851   2.217639   2.696135   2.786185
                    6          7          8          9         10
     6  C    0.000000
     7  C    3.343430   0.000000
     8  C    3.999390   1.357233   0.000000
     9  C    4.225006   2.330223   1.504764   0.000000
    10  C    1.504763   3.816078   4.225023   3.897243   0.000000
    11  H    2.174871   3.290534   3.621210   4.431723   3.380358
    12  H    3.318712   3.520561   2.900114   3.002846   3.386841
    13  H    3.382118   4.186910   3.857514   2.934680   2.284048
    14  H    3.857479   3.324216   3.382119   2.284047   2.934658
    15  H    2.900065   2.240359   3.318712   3.386842   3.002823
    16  H    1.081026   3.871844   4.759778   5.116222   2.293362
    17  H    3.621198   1.082233   2.174870   3.380359   4.431730
    18  H    4.759789   2.181249   1.081025   2.293361   5.116245
    19  H    5.205515   2.906951   2.131731   1.101661   4.817771
    20  H    4.539686   3.224558   2.204848   1.090408   4.061914
    21  H    2.131729   4.877585   5.205535   4.817779   1.101661
    22  H    2.204849   3.981193   4.539700   4.061911   1.090408
                   11         12         13         14         15
    11  H    0.000000
    12  H    2.669694   0.000000
    13  H    4.319669   2.640185   0.000000
    14  H    5.120802   4.143139   2.479221   0.000000
    15  H    4.149825   4.671281   4.143142   2.640185   0.000000
    16  H    2.633590   4.329203   4.400373   4.603770   3.113009
    17  H    3.244928   4.149852   5.120824   4.319669   2.669695
    18  H    3.901681   3.113073   4.603808   4.400372   4.329203
    19  H    5.455370   4.049969   3.783783   2.614044   3.852057
    20  H    4.622289   2.580538   2.530581   2.745481   4.268356
    21  H    3.890727   3.852052   2.614050   3.783771   4.049944
    22  H    4.234403   4.268358   2.745478   2.530557   2.580527
                   16         17         18         19         20
    16  H    0.000000
    17  H    3.901654   0.000000
    18  H    5.505074   2.633589   0.000000
    19  H    6.032567   3.890736   2.730204   0.000000
    20  H    5.539931   4.234398   2.683567   1.760414   0.000000
    21  H    2.730204   5.455372   6.032596   5.751585   4.806476
    22  H    2.683569   4.622302   5.539949   4.806462   4.391629
                   21         22
    21  H    0.000000
    22  H    1.760415   0.000000
 Stoichiometry    C10H12
 Framework group  C1[X(C10H12)]
 Deg. of freedom    60
 Full point group                 C1      NOp   1
 Largest Abelian subgroup         C1      NOp   1
 Largest concise Abelian subgroup C1      NOp   1
                         Standard orientation:                         
 ---------------------------------------------------------------------
 Center     Atomic      Atomic             Coordinates (Angstroms)
 Number     Number       Type             X           Y           Z
 ---------------------------------------------------------------------
      1          6           0        1.375472    1.181542    0.628405
      2          6           0        0.772244    0.099811    1.362015
      3          6           0        0.909706   -1.060176    0.632373
      4          6           0       -0.909685   -1.060153   -0.632405
      5          6           0       -0.772228    0.099863   -1.362002
      6          6           0        1.932223    0.707494   -0.515008
      7          6           0       -1.375486    1.181558   -0.628361
      8          6           0       -1.932251    0.707461    0.515023
      9          6           0       -1.885178   -0.796408    0.493157
     10          6           0        1.885183   -0.796375   -0.493190
     11          1           0        1.331658    2.220878    0.926886
     12          1           0        0.281191    0.199308    2.318663
     13          1           0        0.715172   -2.053717    1.012480
     14          1           0       -0.715139   -2.053678   -1.012550
     15          1           0       -0.281172    0.199402   -2.318643
     16          1           0        2.441021    1.287892   -1.271897
     17          1           0       -1.331684    2.220906   -0.926803
     18          1           0       -2.441069    1.287821    1.271925
     19          1           0       -2.870180   -1.177199    0.179426
     20          1           0       -1.651859   -1.271112    1.446680
     21          1           0        2.870196   -1.177153   -0.179480
     22          1           0        1.651866   -1.271055   -1.446726
 ---------------------------------------------------------------------
 Rotational constants (GHZ):           2.3660413           1.2914154           1.2343090
 Standard basis: 6-311G(d,p) (5D, 7F)
 There are   262 symmetry adapted cartesian basis functions of A   symmetry.
 There are   252 symmetry adapted basis functions of A   symmetry.
   252 basis functions,   416 primitive gaussians,   262 cartesian basis functions
    36 alpha electrons       36 beta electrons
       nuclear repulsion energy       518.0033250293 Hartrees.
 NAtoms=   22 NActive=   22 NUniq=   22 SFac= 1.00D+00 NAtFMM=   60 NAOKFM=F Big=F
 Integral buffers will be    131072 words long.
 Raffenetti 2 integral format.
 Two-electron integral symmetry is turned on.
 Nuclear repulsion after empirical dispersion term =      517.9568181861 Hartrees.
 Force inversion solution in PCM.
 ------------------------------------------------------------------------------
 Polarizable Continuum Model (PCM)
 =================================
 Model                : PCM.
 Atomic radii         : UFF (Universal Force Field).
 Polarization charges : Total charges.
 Charge compensation  : None.
 Solution method      : Matrix inversion.
 Cavity type          : Scaled VdW (van der Waals Surface) (Alpha=1.100).
 Cavity algorithm     : GePol (No added spheres)
                        Default sphere list used, NSphG=   22.
                        Lebedev-Laikov grids with approx.  5.0 points / Ang**2.
                        Smoothing algorithm: York/Karplus (Gamma=1.0000).
                        Polarization charges: spherical gaussians, with
                                              point-specific exponents (IZeta= 3).
                        Self-potential: point-specific (ISelfS= 7).
                        Self-field    : sphere-specific E.n sum rule (ISelfD= 2).
 1st derivatives      : Analytical E(r).r(x)/FMM algorithm (CHGder, D1EAlg=3).
                        Cavity 1st derivative terms included.
 2nd derivatives      : Analytical E(r).r(xy)/FMM algorithm (CHGder, D2EAlg=3).
                        Cavity 2nd derivative terms included.
 Solvent              : Cis-Decalin, Eps=   2.213900 Eps(inf)=   2.193361
 ------------------------------------------------------------------------------
 One-electron integrals computed using PRISM.
 NBasis=   252 RedAO= T EigKep=  5.47D-04  NBF=   252
 NBsUse=   252 1.00D-06 EigRej= -1.00D+00 NBFU=   252
 ExpMin= 1.03D-01 ExpMax= 4.56D+03 ExpMxC= 6.82D+02 IAcc=3 IRadAn=         5 AccDes= 0.00D+00
 Harris functional with IExCor=  402 and IRadAn=       5 diagonalized for initial guess.
 HarFok:  IExCor=  402 AccDes= 0.00D+00 IRadAn=         5 IDoV= 1 UseB2=F ITyADJ=14
 ICtDFT=  3500011 ScaDFX=  1.000000  1.000000  1.000000  1.000000
 FoFCou: FMM=F IPFlag=           0 FMFlag=      100000 FMFlg1=           0
         NFxFlg=           0 DoJE=T BraDBF=F KetDBF=T FulRan=T
         wScrn=  0.000000 ICntrl=       500 IOpCl=  0 I1Cent=   200000004 NGrid=           0
         NMat0=    1 NMatS0=      1 NMatT0=    0 NMatD0=    1 NMtDS0=    0 NMtDT0=    0
 Petite list used in FoFCou.
 Requested convergence on RMS density matrix=1.00D-08 within 128 cycles.
 Requested convergence on MAX density matrix=1.00D-06.
 Requested convergence on             energy=1.00D-06.
 No special actions if energy rises.
 Inv3:  Mode=1 IEnd=     7282092.
 Iteration    1 A*A^-1 deviation from unit magnitude is 5.55D-15 for    315.
 Iteration    1 A*A^-1 deviation from orthogonality  is 3.07D-15 for   1550   1003.
 Iteration    1 A^-1*A deviation from unit magnitude is 5.55D-15 for    312.
 Iteration    1 A^-1*A deviation from orthogonality  is 4.73D-15 for   1547    960.
 Error on total polarization charges =  0.00634
 SCF Done:  E(RB3LYP) =  -388.324920665     A.U. after   12 cycles
            NFock= 12  Conv=0.44D-08     -V/T= 2.0045
 DoSCS=F DFT=T ScalE2(SS,OS)=  1.000000  1.000000
 Range of M.O.s used for correlation:     1   252
 NBasis=   252 NAE=    36 NBE=    36 NFC=     0 NFV=     0
 NROrb=    252 NOA=    36 NOB=    36 NVA=   216 NVB=   216
 Symmetrizing basis deriv contribution to polar:
 IMax=3 JMax=2 DiffMx= 0.00D+00
 G2DrvN: will do    23 centers at a time, making    1 passes.
 Calling FoFCou, ICntrl=  3107 FMM=F I1Cent=   0 AccDes= 0.00D+00.
 NEqPCM:  Using equilibrium solvation (IEInf=0, Eps=   2.2139, EpsInf=   2.1934)
 G2PCM: DoFxE=T DoFxN=T DoGrad=T DoDP/DQ/DG/TGxP=FFFF NFrqRd=   0 IEInf=0 SqF1=F DoCFld=F IF1Alg=4.
 End of G2Drv F.D. properties file   721 does not exist.
 End of G2Drv F.D. properties file   722 does not exist.
 End of G2Drv F.D. properties file   788 does not exist.
          IDoAtm=1111111111111111111111
 NEqPCM:  Using equilibrium solvation (IEInf=0, Eps=   2.2139, EpsInf=   2.1934)
          Differentiating once with respect to electric field.
                with respect to dipole field.
          Differentiating once with respect to nuclear coordinates.
 Keep R1 ints in memory in canonical form, NReq=612588626.
          There are    69 degrees of freedom in the 1st order CPHF.  IDoFFX=6 NUNeed=     3.
     66 vectors produced by pass  0 Test12= 1.13D-14 1.45D-09 XBig12= 1.80D+02 1.09D+01.
 AX will form    66 AO Fock derivatives at one time.
     66 vectors produced by pass  1 Test12= 1.13D-14 1.45D-09 XBig12= 2.47D+01 8.25D-01.
     66 vectors produced by pass  2 Test12= 1.13D-14 1.45D-09 XBig12= 2.49D-01 9.55D-02.
     66 vectors produced by pass  3 Test12= 1.13D-14 1.45D-09 XBig12= 7.31D-04 5.35D-03.
     66 vectors produced by pass  4 Test12= 1.13D-14 1.45D-09 XBig12= 1.45D-06 2.08D-04.
     45 vectors produced by pass  5 Test12= 1.13D-14 1.45D-09 XBig12= 1.59D-09 4.38D-06.
      6 vectors produced by pass  6 Test12= 1.13D-14 1.45D-09 XBig12= 1.50D-12 1.53D-07.
      3 vectors produced by pass  7 Test12= 1.13D-14 1.45D-09 XBig12= 1.51D-15 4.19D-09.
 InvSVY:  IOpt=1 It=  1 EMax= 1.24D-14
 Solved reduced A of dimension   384 with    69 vectors.
 Isotropic polarizability for W=    0.000000      126.24 Bohr**3.
 End of Minotr F.D. properties file   721 does not exist.
 End of Minotr F.D. properties file   722 does not exist.
 End of Minotr F.D. properties file   788 does not exist.

 **********************************************************************

            Population analysis using the SCF density.

 **********************************************************************

 Orbital symmetries:
       Occupied  (A) (A) (A) (A) (A) (A) (A) (A) (A) (A) (A) (A)
                 (A) (A) (A) (A) (A) (A) (A) (A) (A) (A) (A) (A)
                 (A) (A) (A) (A) (A) (A) (A) (A) (A) (A) (A) (A)
       Virtual   (A) (A) (A) (A) (A) (A) (A) (A) (A) (A) (A) (A)
                 (A) (A) (A) (A) (A) (A) (A) (A) (A) (A) (A) (A)
                 (A) (A) (A) (A) (A) (A) (A) (A) (A) (A) (A) (A)
                 (A) (A) (A) (A) (A) (A) (A) (A) (A) (A) (A) (A)
                 (A) (A) (A) (A) (A) (A) (A) (A) (A) (A) (A) (A)
                 (A) (A) (A) (A) (A) (A) (A) (A) (A) (A) (A) (A)
                 (A) (A) (A) (A) (A) (A) (A) (A) (A) (A) (A) (A)
                 (A) (A) (A) (A) (A) (A) (A) (A) (A) (A) (A) (A)
                 (A) (A) (A) (A) (A) (A) (A) (A) (A) (A) (A) (A)
                 (A) (A) (A) (A) (A) (A) (A) (A) (A) (A) (A) (A)
                 (A) (A) (A) (A) (A) (A) (A) (A) (A) (A) (A) (A)
                 (A) (A) (A) (A) (A) (A) (A) (A) (A) (A) (A) (A)
                 (A) (A) (A) (A) (A) (A) (A) (A) (A) (A) (A) (A)
                 (A) (A) (A) (A) (A) (A) (A) (A) (A) (A) (A) (A)
                 (A) (A) (A) (A) (A) (A) (A) (A) (A) (A) (A) (A)
                 (A) (A) (A) (A) (A) (A) (A) (A) (A) (A) (A) (A)
                 (A) (A) (A) (A) (A) (A) (A) (A) (A) (A) (A) (A)
                 (A) (A) (A) (A) (A) (A) (A) (A) (A) (A) (A) (A)
 The electronic state is 1-A.
 Alpha  occ. eigenvalues --  -10.17104 -10.17103 -10.16909 -10.16909 -10.16184
 Alpha  occ. eigenvalues --  -10.16183 -10.16028 -10.16027 -10.15756 -10.15755
 Alpha  occ. eigenvalues --   -0.86512  -0.84225  -0.71294  -0.70586  -0.69235
 Alpha  occ. eigenvalues --   -0.68827  -0.55310  -0.55051  -0.53200  -0.51721
 Alpha  occ. eigenvalues --   -0.51677  -0.50334  -0.44808  -0.42130  -0.39535
 Alpha  occ. eigenvalues --   -0.38522  -0.37453  -0.37127  -0.36134  -0.36119
 Alpha  occ. eigenvalues --   -0.35628  -0.34814  -0.31585  -0.26439  -0.24319
 Alpha  occ. eigenvalues --   -0.19261
 Alpha virt. eigenvalues --   -0.02687   0.00867   0.03852   0.04780   0.07332
 Alpha virt. eigenvalues --    0.07791   0.07909   0.09575   0.09753   0.10548
 Alpha virt. eigenvalues --    0.11162   0.11419   0.12695   0.15148   0.15310
 Alpha virt. eigenvalues --    0.16818   0.18764   0.19722   0.21791   0.23322
 Alpha virt. eigenvalues --    0.27267   0.27461   0.30716   0.31507   0.31896
 Alpha virt. eigenvalues --    0.32481   0.35569   0.38411   0.38522   0.39414
 Alpha virt. eigenvalues --    0.40065   0.40538   0.40897   0.42452   0.43445
 Alpha virt. eigenvalues --    0.44010   0.44806   0.46424   0.46465   0.49053
 Alpha virt. eigenvalues --    0.49894   0.52265   0.55011   0.55689   0.56573
 Alpha virt. eigenvalues --    0.56586   0.58871   0.59204   0.59878   0.60096
 Alpha virt. eigenvalues --    0.60178   0.62011   0.62025   0.63563   0.64048
 Alpha virt. eigenvalues --    0.64404   0.65464   0.66005   0.68771   0.70036
 Alpha virt. eigenvalues --    0.70457   0.71615   0.72391   0.73609   0.76917
 Alpha virt. eigenvalues --    0.80122   0.80265   0.84686   0.85289   0.88061
 Alpha virt. eigenvalues --    0.88404   0.91943   0.93553   0.98152   0.99105
 Alpha virt. eigenvalues --    1.03801   1.03826   1.05385   1.06683   1.12582
 Alpha virt. eigenvalues --    1.13301   1.15502   1.17526   1.21232   1.21705
 Alpha virt. eigenvalues --    1.24083   1.28680   1.34134   1.38516   1.38886
 Alpha virt. eigenvalues --    1.47240   1.47376   1.48075   1.49865   1.51494
 Alpha virt. eigenvalues --    1.52854   1.52960   1.55105   1.56544   1.56607
 Alpha virt. eigenvalues --    1.58643   1.59374   1.60886   1.60954   1.61125
 Alpha virt. eigenvalues --    1.63923   1.63956   1.66002   1.67472   1.69824
 Alpha virt. eigenvalues --    1.70624   1.73015   1.74486   1.77334   1.78249
 Alpha virt. eigenvalues --    1.79492   1.81794   1.82217   1.82492   1.84700
 Alpha virt. eigenvalues --    1.84722   1.86419   1.89098   1.89228   1.89381
 Alpha virt. eigenvalues --    1.91694   1.92078   1.95039   1.97162   1.97500
 Alpha virt. eigenvalues --    1.98659   1.99534   2.03075   2.04102   2.09999
 Alpha virt. eigenvalues --    2.11513   2.13157   2.15645   2.18281   2.19492
 Alpha virt. eigenvalues --    2.24094   2.24701   2.26967   2.32365   2.32867
 Alpha virt. eigenvalues --    2.34291   2.36681   2.36891   2.39046   2.41472
 Alpha virt. eigenvalues --    2.44316   2.45960   2.50341   2.52859   2.53539
 Alpha virt. eigenvalues --    2.54139   2.58593   2.59259   2.60068   2.60994
 Alpha virt. eigenvalues --    2.62701   2.67425   2.69813   2.70677   2.71272
 Alpha virt. eigenvalues --    2.71308   2.74078   2.74356   2.78518   2.78813
 Alpha virt. eigenvalues --    2.81231   2.83488   2.86548   2.92933   2.93669
 Alpha virt. eigenvalues --    2.94939   2.95620   2.98627   2.99535   3.05293
 Alpha virt. eigenvalues --    3.05571   3.10622   3.11725   3.19025   3.19138
 Alpha virt. eigenvalues --    3.21012   3.33884   3.34038   3.42450   3.42626
 Alpha virt. eigenvalues --    3.48003   3.50074   3.55237   3.59641   3.77514
 Alpha virt. eigenvalues --    3.77819   4.02664   4.03965   4.05800   4.08450
 Alpha virt. eigenvalues --    4.09083   4.10727   4.16391   4.18164   4.53174
 Alpha virt. eigenvalues --    4.55380  23.62425  23.74133  23.87094  23.89753
 Alpha virt. eigenvalues --   23.90180  23.95152  24.16836  24.18940  24.22110
 Alpha virt. eigenvalues --   24.22301
          Condensed to atoms (all electrons):
               1          2          3          4          5          6
     1  C    4.877146   0.444372  -0.077620  -0.007833   0.002491   0.580801
     2  C    0.444372   4.988488   0.543015  -0.041650  -0.037568  -0.085607
     3  C   -0.077620   0.543015   5.195286   0.044571  -0.041650  -0.098165
     4  C   -0.007833  -0.041650   0.044571   5.195286   0.543016  -0.011386
     5  C    0.002491  -0.037568  -0.041650   0.543016   4.988491   0.022928
     6  C    0.580801  -0.085607  -0.098165  -0.011386   0.022928   5.068492
     7  C   -0.013141   0.002492  -0.007832  -0.077619   0.444370  -0.009022
     8  C   -0.009022   0.022926  -0.011385  -0.098165  -0.085606  -0.002402
     9  C    0.000580  -0.011923  -0.025354   0.378432  -0.099366   0.000828
    10  C   -0.093416  -0.099366   0.378431  -0.025354  -0.011924   0.377026
    11  H    0.420729  -0.044553   0.006488  -0.000143  -0.000145  -0.044811
    12  H   -0.038458   0.420933  -0.043879  -0.001673   0.000313   0.006056
    13  H    0.007972  -0.037250   0.412402  -0.011354   0.002185   0.005688
    14  H   -0.000047   0.002184  -0.011354   0.412402  -0.037250  -0.000262
    15  H   -0.000203   0.000313  -0.001673  -0.043879   0.420933   0.002749
    16  H   -0.037956   0.008279   0.005278   0.000230  -0.001336   0.417304
    17  H    0.002010  -0.000145  -0.000143   0.006488  -0.044553   0.000861
    18  H    0.000066  -0.001336   0.000230   0.005278   0.008279   0.000019
    19  H   -0.000227   0.002780   0.004876  -0.028921  -0.001546  -0.000187
    20  H    0.000781  -0.003598  -0.003065  -0.041229   0.007208   0.000152
    21  H   -0.002088  -0.001546  -0.028921   0.004876   0.002780  -0.031234
    22  H    0.005202   0.007208  -0.041229  -0.003065  -0.003599  -0.035001
               7          8          9         10         11         12
     1  C   -0.013141  -0.009022   0.000580  -0.093416   0.420729  -0.038458
     2  C    0.002492   0.022926  -0.011923  -0.099366  -0.044553   0.420933
     3  C   -0.007832  -0.011385  -0.025354   0.378431   0.006488  -0.043879
     4  C   -0.077619  -0.098165   0.378432  -0.025354  -0.000143  -0.001673
     5  C    0.444370  -0.085606  -0.099366  -0.011924  -0.000145   0.000313
     6  C   -0.009022  -0.002402   0.000828   0.377026  -0.044811   0.006056
     7  C    4.877144   0.580803  -0.093416   0.000580   0.002010  -0.000202
     8  C    0.580803   5.068486   0.377026   0.000828   0.000861   0.002750
     9  C   -0.093416   0.377026   4.888127   0.002411  -0.000089  -0.000076
    10  C    0.000580   0.000828   0.002411   4.888129   0.008980   0.007785
    11  H    0.002010   0.000861  -0.000089   0.008980   0.572784  -0.002467
    12  H   -0.000202   0.002750  -0.000076   0.007785  -0.002467   0.557303
    13  H   -0.000047  -0.000262  -0.002394  -0.033302  -0.000298  -0.004474
    14  H    0.007971   0.005688  -0.033302  -0.002394   0.000023  -0.000030
    15  H   -0.038457   0.006056   0.007785  -0.000076  -0.000039  -0.000001
    16  H    0.000066   0.000019  -0.000004  -0.038751  -0.005215  -0.000322
    17  H    0.420729  -0.044811   0.008980  -0.000089   0.000139  -0.000039
    18  H   -0.037956   0.417304  -0.038751  -0.000004   0.000018   0.000239
    19  H   -0.002088  -0.031234   0.382829  -0.000188   0.000003   0.000087
    20  H    0.005202  -0.035001   0.407161   0.000437  -0.000015   0.000084
    21  H   -0.000227  -0.000187  -0.000188   0.382829  -0.000505  -0.000458
    22  H    0.000781   0.000152   0.000437   0.407162  -0.000273  -0.000266
              13         14         15         16         17         18
     1  C    0.007972  -0.000047  -0.000203  -0.037956   0.002010   0.000066
     2  C   -0.037250   0.002184   0.000313   0.008279  -0.000145  -0.001336
     3  C    0.412402  -0.011354  -0.001673   0.005278  -0.000143   0.000230
     4  C   -0.011354   0.412402  -0.043879   0.000230   0.006488   0.005278
     5  C    0.002185  -0.037250   0.420933  -0.001336  -0.044553   0.008279
     6  C    0.005688  -0.000262   0.002749   0.417304   0.000861   0.000019
     7  C   -0.000047   0.007971  -0.038457   0.000066   0.420729  -0.037956
     8  C   -0.000262   0.005688   0.006056   0.000019  -0.044811   0.417304
     9  C   -0.002394  -0.033302   0.007785  -0.000004   0.008980  -0.038751
    10  C   -0.033302  -0.002394  -0.000076  -0.038751  -0.000089  -0.000004
    11  H   -0.000298   0.000023  -0.000039  -0.005215   0.000139   0.000018
    12  H   -0.004474  -0.000030  -0.000001  -0.000322  -0.000039   0.000239
    13  H    0.546390  -0.002248  -0.000030  -0.000281   0.000023   0.000018
    14  H   -0.002248   0.546390  -0.004474   0.000018  -0.000298  -0.000281
    15  H   -0.000030  -0.004474   0.557302   0.000239  -0.002467  -0.000322
    16  H   -0.000281   0.000018   0.000239   0.560103   0.000018  -0.000000
    17  H    0.000023  -0.000298  -0.002467   0.000018   0.572785  -0.005215
    18  H    0.000018  -0.000281  -0.000322  -0.000000  -0.005215   0.560103
    19  H   -0.000242  -0.000823  -0.000458   0.000001  -0.000505   0.000304
    20  H    0.001616  -0.000903  -0.000266  -0.000004  -0.000273  -0.001766
    21  H   -0.000823  -0.000242   0.000087   0.000304   0.000003   0.000001
    22  H   -0.000903   0.001616   0.000084  -0.001766  -0.000015  -0.000004
              19         20         21         22
     1  C   -0.000227   0.000781  -0.002088   0.005202
     2  C    0.002780  -0.003598  -0.001546   0.007208
     3  C    0.004876  -0.003065  -0.028921  -0.041229
     4  C   -0.028921  -0.041229   0.004876  -0.003065
     5  C   -0.001546   0.007208   0.002780  -0.003599
     6  C   -0.000187   0.000152  -0.031234  -0.035001
     7  C   -0.002088   0.005202  -0.000227   0.000781
     8  C   -0.031234  -0.035001  -0.000187   0.000152
     9  C    0.382829   0.407161  -0.000188   0.000437
    10  C   -0.000188   0.000437   0.382829   0.407162
    11  H    0.000003  -0.000015  -0.000505  -0.000273
    12  H    0.000087   0.000084  -0.000458  -0.000266
    13  H   -0.000242   0.001616  -0.000823  -0.000903
    14  H   -0.000823  -0.000903  -0.000242   0.001616
    15  H   -0.000458  -0.000266   0.000087   0.000084
    16  H    0.000001  -0.000004   0.000304  -0.001766
    17  H   -0.000505  -0.000273   0.000003  -0.000015
    18  H    0.000304  -0.001766   0.000001  -0.000004
    19  H    0.571089  -0.031602   0.000006  -0.000055
    20  H   -0.031602   0.572507  -0.000055  -0.000016
    21  H    0.000006  -0.000055   0.571088  -0.031602
    22  H   -0.000055  -0.000016  -0.031602   0.572507
 Mulliken charges:
               1
     1  C   -0.062138
     2  C   -0.078447
     3  C   -0.198305
     4  C   -0.198306
     5  C   -0.078450
     6  C   -0.164827
     7  C   -0.062138
     8  C   -0.164826
     9  C   -0.149735
    10  C   -0.149735
    11  H    0.086519
    12  H    0.096795
    13  H    0.117615
    14  H    0.117616
    15  H    0.096796
    16  H    0.093775
    17  H    0.086518
    18  H    0.093775
    19  H    0.136101
    20  H    0.122647
    21  H    0.136101
    22  H    0.122647
 Sum of Mulliken charges =  -0.00000
 Mulliken charges with hydrogens summed into heavy atoms:
               1
     1  C    0.024380
     2  C    0.018348
     3  C   -0.080690
     4  C   -0.080689
     5  C    0.018346
     6  C   -0.071052
     7  C    0.024380
     8  C   -0.071050
     9  C    0.109013
    10  C    0.109014
 APT charges:
               1
     1  C   -0.012607
     2  C   -0.126393
     3  C    0.055438
     4  C    0.055432
     5  C   -0.126388
     6  C   -0.055588
     7  C   -0.012605
     8  C   -0.055594
     9  C    0.004256
    10  C    0.004255
    11  H    0.041613
    12  H    0.048197
    13  H    0.020563
    14  H    0.020562
    15  H    0.048197
    16  H    0.029247
    17  H    0.041612
    18  H    0.029248
    19  H   -0.015347
    20  H    0.010625
    21  H   -0.015347
    22  H    0.010624
 Sum of APT charges =   0.00000
 APT charges with hydrogens summed into heavy atoms:
               1
     1  C    0.029006
     2  C   -0.078196
     3  C    0.076001
     4  C    0.075994
     5  C   -0.078191
     6  C   -0.026341
     7  C    0.029008
     8  C   -0.026346
     9  C   -0.000466
    10  C   -0.000468
 Electronic spatial extent (au):  <R**2>=           1195.4567
 Charge=             -0.0000 electrons
 Dipole moment (field-independent basis, Debye):
    X=              0.0000    Y=             -0.6168    Z=             -0.0000  Tot=              0.6168
 Quadrupole moment (field-independent basis, Debye-Ang):
   XX=            -63.0632   YY=            -56.7417   ZZ=            -59.6500
   XY=              0.0000   XZ=             -4.4277   YZ=              0.0000
 Traceless Quadrupole moment (field-independent basis, Debye-Ang):
   XX=             -3.2449   YY=              3.0766   ZZ=              0.1683
   XY=              0.0000   XZ=             -4.4277   YZ=              0.0000
 Octapole moment (field-independent basis, Debye-Ang**2):
  XXX=             -0.0001  YYY=              1.2009  ZZZ=              0.0001  XYY=             -0.0000
  XXY=             -3.3851  XXZ=             -0.0000  XZZ=              0.0000  YZZ=              1.6201
  YYZ=             -0.0001  XYZ=             -0.5441
 Hexadecapole moment (field-independent basis, Debye-Ang**3):
 XXXX=           -922.6765 YYYY=           -389.5691 ZZZZ=           -352.2985 XXXY=              0.0001
 XXXZ=            -28.8427 YYYX=             -0.0000 YYYZ=              0.0001 ZZZX=            -19.3271
 ZZZY=             -0.0000 XXYY=           -215.3794 XXZZ=           -218.3070 YYZZ=           -124.1855
 XXYZ=              0.0003 YYXZ=             -2.5003 ZZXY=              0.0003
 N-N= 5.179568181861D+02 E-N=-1.936665575374D+03  KE= 3.865914648299D+02
  Exact polarizability: 142.855   0.000 120.235  -9.123  -0.000 115.617
 Approx polarizability: 197.030   0.001 180.385 -14.624  -0.001 186.753
 D2PCM: PCM CHGder 2nd derivatives, FixD1E=F FixD2E=F DoIter=F DoCFld=F I1PDM=0
 Calling FoFJK, ICntrl=    100127 FMM=F ISym2X=0 I1Cent= 0 IOpClX= 0 NMat=1 NMatS=1 NMatT=0.
 Full mass-weighted force constant matrix:
 Low frequencies --- -105.9477  -47.0221  -46.4838  -15.8454    0.0001    0.0003
 Low frequencies ---    0.0007  115.1909  143.4042
 ******    1 imaginary frequencies (negative Signs) ****** 
 Diagonal vibrational polarizability:
        8.3621322       2.2102732       5.3153028
 Harmonic frequencies (cm**-1), IR intensities (KM/Mole), Raman scattering
 activities (A**4/AMU), depolarization ratios for plane and unpolarized
 incident light, reduced masses (AMU), force constants (mDyne/A),
 and normal coordinates:
                      1                      2                      3
                      A                      A                      A
 Frequencies --   -105.8917               114.9022               143.3071
 Red. masses --      8.2414                 3.2989                 4.1272
 Frc consts  --      0.0544                 0.0257                 0.0499
 IR Inten    --      0.0102                 0.0706                 0.4097
  Atom  AN      X      Y      Z        X      Y      Z        X      Y      Z
     1   6    -0.11  -0.03   0.03     0.06   0.03  -0.13     0.06   0.06   0.02
     2   6    -0.18   0.03  -0.05    -0.02   0.14  -0.04    -0.16   0.09  -0.09
     3   6    -0.40   0.01  -0.25    -0.08   0.06   0.07    -0.13   0.09  -0.08
     4   6     0.40   0.01   0.25     0.08   0.06  -0.07    -0.13  -0.09  -0.08
     5   6     0.18   0.03   0.05     0.02   0.14   0.04    -0.16  -0.09  -0.09
     6   6    -0.20  -0.00  -0.06     0.07  -0.12  -0.07     0.21   0.04   0.11
     7   6     0.11  -0.03  -0.03    -0.06   0.03   0.13     0.06  -0.06   0.02
     8   6     0.20  -0.00   0.06    -0.07  -0.12   0.07     0.21  -0.04   0.11
     9   6     0.11  -0.01   0.05     0.01  -0.11  -0.09     0.01  -0.05   0.03
    10   6    -0.11  -0.01  -0.05    -0.01  -0.11   0.09     0.01   0.05   0.03
    11   1    -0.04  -0.03   0.06     0.11   0.07  -0.25     0.12   0.06   0.05
    12   1    -0.04  -0.03   0.02    -0.03   0.27  -0.06    -0.20   0.10  -0.11
    13   1    -0.11   0.02  -0.06    -0.14   0.11   0.17    -0.18   0.10  -0.09
    14   1     0.11   0.02   0.06     0.14   0.11  -0.17    -0.18  -0.10  -0.09
    15   1     0.04  -0.03  -0.02     0.03   0.27   0.06    -0.20  -0.10  -0.11
    16   1    -0.21   0.02  -0.05     0.12  -0.23  -0.11     0.37   0.01   0.20
    17   1     0.04  -0.03  -0.06    -0.11   0.07   0.25     0.12  -0.06   0.05
    18   1     0.21   0.02   0.05    -0.12  -0.23   0.11     0.37  -0.01   0.20
    19   1     0.17   0.06  -0.21     0.04  -0.13  -0.17    -0.07   0.11   0.08
    20   1    -0.11  -0.05   0.08    -0.00  -0.20  -0.13     0.03  -0.14  -0.03
    21   1    -0.17   0.06   0.21    -0.04  -0.13   0.17    -0.07  -0.11   0.08
    22   1     0.11  -0.05  -0.08     0.00  -0.20   0.13     0.03   0.14  -0.03
                      4                      5                      6
                      A                      A                      A
 Frequencies --    191.0012               239.0930               278.4734
 Red. masses --      3.9154                 3.4647                 3.7076
 Frc consts  --      0.0842                 0.1167                 0.1694
 IR Inten    --      0.5273                 0.1145                 0.1502
  Atom  AN      X      Y      Z        X      Y      Z        X      Y      Z
     1   6     0.21  -0.03   0.10     0.16   0.06   0.06    -0.10   0.00  -0.11
     2   6     0.05   0.00  -0.02     0.11   0.08   0.06    -0.09  -0.02  -0.15
     3   6    -0.10   0.03  -0.13    -0.06   0.09   0.01     0.04  -0.02  -0.13
     4   6     0.10   0.03   0.13    -0.06  -0.09   0.01    -0.04  -0.02   0.13
     5   6    -0.05   0.00   0.02     0.11  -0.08   0.06     0.09  -0.02   0.15
     6   6     0.19  -0.00   0.07    -0.05   0.06  -0.04     0.13   0.02  -0.01
     7   6    -0.21  -0.03  -0.10     0.16  -0.06   0.06     0.10   0.00   0.11
     8   6    -0.19  -0.00  -0.07    -0.05  -0.06  -0.04    -0.13   0.02   0.01
     9   6    -0.00   0.00   0.06    -0.16  -0.06  -0.09    -0.18   0.02   0.01
    10   6     0.00   0.00  -0.06    -0.16   0.06  -0.09     0.18   0.02  -0.01
    11   1     0.37  -0.05   0.19     0.34   0.04   0.14    -0.23   0.01  -0.15
    12   1     0.06  -0.02  -0.01     0.21   0.08   0.12    -0.21  -0.03  -0.21
    13   1    -0.09   0.03  -0.13    -0.06   0.10   0.03     0.11  -0.03  -0.12
    14   1     0.09   0.03   0.13    -0.06  -0.10   0.03    -0.11  -0.03   0.12
    15   1    -0.06  -0.02   0.01     0.21  -0.08   0.12     0.21  -0.03   0.21
    16   1     0.30  -0.01   0.14    -0.07   0.04  -0.07     0.20   0.04   0.06
    17   1    -0.37  -0.05  -0.19     0.34  -0.04   0.14     0.23   0.01   0.15
    18   1    -0.30  -0.01  -0.14    -0.07  -0.04  -0.07    -0.20   0.04  -0.06
    19   1     0.07  -0.15   0.02    -0.15   0.01  -0.20    -0.14   0.03  -0.12
    20   1    -0.00   0.11   0.11    -0.28  -0.10  -0.08    -0.31   0.02   0.05
    21   1    -0.07  -0.15  -0.02    -0.15  -0.01  -0.20     0.14   0.03   0.12
    22   1     0.00   0.11  -0.11    -0.28   0.10  -0.08     0.31   0.02  -0.05
                      7                      8                      9
                      A                      A                      A
 Frequencies --    416.2202               442.9752               555.2516
 Red. masses --      1.8786                 1.7321                 2.5619
 Frc consts  --      0.1917                 0.2003                 0.4654
 IR Inten    --      0.0001                 0.9358                 0.7405
  Atom  AN      X      Y      Z        X      Y      Z        X      Y      Z
     1   6    -0.06   0.01  -0.02     0.07  -0.01   0.03    -0.12   0.03  -0.06
     2   6    -0.09   0.01  -0.03     0.01  -0.00  -0.01     0.15  -0.02   0.09
     3   6     0.02   0.00   0.03    -0.08   0.01  -0.06    -0.08   0.01  -0.04
     4   6    -0.02   0.00  -0.03    -0.08  -0.01  -0.06     0.08   0.01   0.04
     5   6     0.09   0.01   0.03     0.01   0.00  -0.01    -0.15  -0.02  -0.09
     6   6     0.06  -0.01   0.05    -0.08   0.01  -0.06     0.09  -0.01   0.07
     7   6     0.06   0.01   0.02     0.07   0.01   0.03     0.12   0.03   0.06
     8   6    -0.06  -0.01  -0.05    -0.08  -0.01  -0.06    -0.09  -0.01  -0.07
     9   6     0.11  -0.01   0.07     0.05  -0.01   0.06     0.00  -0.01  -0.01
    10   6    -0.11  -0.01  -0.07     0.05   0.01   0.06    -0.00  -0.01   0.01
    11   1    -0.09   0.01  -0.04     0.16  -0.03   0.10    -0.36   0.06  -0.20
    12   1    -0.19   0.04  -0.08    -0.01   0.00  -0.02     0.36  -0.06   0.20
    13   1    -0.05   0.00  -0.01    -0.13   0.01  -0.10     0.02   0.01   0.02
    14   1     0.05   0.00   0.01    -0.13  -0.01  -0.10    -0.02   0.01  -0.02
    15   1     0.19   0.04   0.08    -0.01  -0.00  -0.02    -0.36  -0.06  -0.20
    16   1     0.13  -0.02   0.09    -0.08   0.01  -0.06    -0.05  -0.01  -0.02
    17   1     0.09   0.01   0.04     0.16   0.03   0.10     0.36   0.06   0.20
    18   1    -0.13  -0.02  -0.09    -0.08  -0.01  -0.06     0.05  -0.01   0.02
    19   1     0.11  -0.23   0.36     0.04  -0.24   0.39     0.09  -0.20  -0.04
    20   1     0.39   0.17   0.09     0.37   0.19   0.08     0.02   0.14   0.05
    21   1    -0.11  -0.23  -0.36     0.04   0.24   0.39    -0.09  -0.20   0.04
    22   1    -0.39   0.17  -0.09     0.37  -0.19   0.08    -0.02   0.14  -0.05
                     10                     11                     12
                      A                      A                      A
 Frequencies --    573.9918               704.0677               705.3566
 Red. masses --      2.4927                 1.2016                 1.2626
 Frc consts  --      0.4839                 0.3509                 0.3701
 IR Inten    --      5.3741                96.2967                 0.8143
  Atom  AN      X      Y      Z        X      Y      Z        X      Y      Z
     1   6    -0.09   0.03  -0.06    -0.06  -0.01  -0.04    -0.06  -0.01  -0.05
     2   6     0.15  -0.02   0.07     0.01  -0.01   0.00     0.02  -0.02   0.00
     3   6    -0.12   0.03  -0.07     0.02  -0.01   0.02     0.00  -0.01   0.02
     4   6    -0.12  -0.03  -0.07     0.02   0.01   0.02    -0.00  -0.01  -0.02
     5   6     0.15   0.02   0.07     0.01   0.01   0.00    -0.02  -0.02  -0.00
     6   6     0.08   0.00   0.04    -0.01   0.01  -0.03    -0.01   0.02  -0.03
     7   6    -0.09  -0.03  -0.06    -0.06   0.01  -0.04     0.06  -0.01   0.05
     8   6     0.08  -0.00   0.04    -0.01  -0.01  -0.03     0.01   0.02   0.03
     9   6    -0.01  -0.00   0.02    -0.04  -0.02  -0.00     0.06   0.02  -0.00
    10   6    -0.01   0.00   0.02    -0.04   0.02  -0.00    -0.06   0.02   0.00
    11   1    -0.30   0.06  -0.18     0.21  -0.05   0.13     0.19  -0.05   0.13
    12   1     0.40  -0.07   0.21     0.17  -0.02   0.09     0.15  -0.01   0.07
    13   1    -0.08   0.02  -0.07     0.05  -0.02  -0.00    -0.01  -0.03  -0.03
    14   1    -0.08  -0.02  -0.07     0.05   0.02  -0.00     0.01  -0.03   0.03
    15   1     0.40   0.07   0.21     0.17   0.02   0.09    -0.15  -0.01  -0.07
    16   1    -0.05   0.00  -0.04     0.52  -0.04   0.29     0.52  -0.04   0.28
    17   1    -0.30  -0.06  -0.18     0.22   0.05   0.13    -0.19  -0.05  -0.12
    18   1    -0.05  -0.00  -0.04     0.52   0.04   0.29    -0.52  -0.04  -0.28
    19   1    -0.11   0.12   0.18    -0.02  -0.14   0.07     0.04   0.16  -0.11
    20   1     0.11  -0.08  -0.05     0.05   0.10   0.03    -0.07  -0.10  -0.03
    21   1    -0.11  -0.12   0.18    -0.02   0.14   0.07    -0.04   0.16   0.11
    22   1     0.11   0.08  -0.05     0.05  -0.10   0.03     0.07  -0.10   0.03
                     13                     14                     15
                      A                      A                      A
 Frequencies --    769.6568               775.1186               804.1412
 Red. masses --      1.2774                 1.2690                 3.5427
 Frc consts  --      0.4458                 0.4492                 1.3498
 IR Inten    --      0.3633                82.8767                 0.1235
  Atom  AN      X      Y      Z        X      Y      Z        X      Y      Z
     1   6     0.00  -0.03  -0.02     0.01   0.00   0.01     0.06   0.01  -0.04
     2   6     0.06  -0.04   0.06    -0.08   0.01  -0.06     0.01  -0.07  -0.11
     3   6    -0.02   0.02   0.00     0.01  -0.02  -0.00    -0.05  -0.14   0.06
     4   6     0.02   0.02  -0.00     0.01   0.02  -0.00     0.05  -0.14  -0.06
     5   6    -0.06  -0.04  -0.06    -0.08  -0.01  -0.06    -0.01  -0.07   0.11
     6   6    -0.00   0.02  -0.03     0.02  -0.01   0.02     0.11   0.09  -0.03
     7   6    -0.00  -0.03   0.02     0.01  -0.00   0.01    -0.06   0.01   0.04
     8   6     0.00   0.02   0.03     0.02   0.01   0.02    -0.11   0.09   0.03
     9   6     0.01   0.02  -0.01    -0.02   0.00  -0.01     0.15   0.11  -0.11
    10   6    -0.01   0.02   0.01    -0.02  -0.00  -0.01    -0.15   0.11   0.11
    11   1    -0.11  -0.02  -0.06     0.09  -0.00   0.05    -0.16  -0.03   0.07
    12   1    -0.40   0.09  -0.20     0.43  -0.15   0.21     0.02   0.06  -0.12
    13   1    -0.42  -0.01  -0.30     0.33  -0.00   0.22     0.12  -0.17   0.07
    14   1     0.42  -0.01   0.30     0.33   0.00   0.22    -0.12  -0.17  -0.07
    15   1     0.40   0.09   0.20     0.43   0.15   0.21    -0.02   0.06   0.12
    16   1     0.04   0.03  -0.00    -0.18  -0.01  -0.11    -0.21  -0.04  -0.34
    17   1     0.11  -0.02   0.06     0.09   0.00   0.05     0.16  -0.03  -0.07
    18   1    -0.04   0.03   0.00    -0.18   0.01  -0.11     0.21  -0.04   0.34
    19   1     0.00   0.03  -0.01    -0.05  -0.02   0.11     0.19   0.12  -0.25
    20   1     0.01  -0.04  -0.04     0.10   0.02  -0.03    -0.04   0.10  -0.07
    21   1    -0.00   0.03   0.01    -0.05   0.02   0.11    -0.19   0.12   0.25
    22   1    -0.01  -0.04   0.04     0.10  -0.02  -0.03     0.04   0.10   0.07
                     16                     17                     18
                      A                      A                      A
 Frequencies --    820.0303               827.6890               836.0409
 Red. masses --      4.1841                 5.2247                 4.4905
 Frc consts  --      1.6577                 2.1089                 1.8493
 IR Inten    --      4.4193                11.3096                 1.7832
  Atom  AN      X      Y      Z        X      Y      Z        X      Y      Z
     1   6    -0.06   0.01   0.05     0.02  -0.25  -0.07    -0.01   0.23   0.05
     2   6    -0.05   0.08   0.09    -0.14  -0.01   0.20     0.15   0.00  -0.16
     3   6     0.04   0.17  -0.09    -0.03   0.10   0.06     0.02  -0.09  -0.06
     4   6     0.04  -0.17  -0.09    -0.03  -0.10   0.06    -0.02  -0.09   0.06
     5   6    -0.05  -0.08   0.09    -0.14   0.01   0.20    -0.15   0.00   0.16
     6   6    -0.10  -0.12   0.06     0.11   0.02  -0.13    -0.12  -0.00   0.11
     7   6    -0.06  -0.01   0.05     0.02   0.25  -0.07     0.01   0.23  -0.05
     8   6    -0.10   0.12   0.06     0.11  -0.02  -0.13     0.12  -0.00  -0.11
     9   6     0.13   0.13  -0.13     0.04  -0.13  -0.05     0.03  -0.12  -0.05
    10   6     0.13  -0.13  -0.13     0.04   0.13  -0.05    -0.03  -0.12   0.05
    11   1     0.23   0.07  -0.08    -0.01  -0.22  -0.17    -0.01   0.21   0.13
    12   1     0.12  -0.17   0.20     0.02   0.14   0.27    -0.17  -0.10  -0.31
    13   1    -0.07   0.22  -0.02     0.11  -0.02  -0.18    -0.22   0.01   0.08
    14   1    -0.07  -0.22  -0.02     0.11   0.02  -0.18     0.22   0.01  -0.08
    15   1     0.12   0.17   0.20     0.02  -0.14   0.27     0.17  -0.10   0.31
    16   1     0.03   0.02   0.26    -0.13   0.25  -0.11     0.15  -0.22   0.11
    17   1     0.23  -0.07  -0.08    -0.01   0.22  -0.17     0.01   0.21  -0.13
    18   1     0.03  -0.02   0.26    -0.13  -0.25  -0.11    -0.15  -0.22  -0.11
    19   1     0.13   0.12  -0.12    -0.02  -0.03   0.04    -0.05  -0.02   0.07
    20   1     0.08   0.12  -0.13     0.00   0.03   0.04     0.01   0.01   0.02
    21   1     0.13  -0.12  -0.12    -0.02   0.03   0.04     0.05  -0.02  -0.07
    22   1     0.08  -0.12  -0.13     0.00  -0.03   0.04    -0.01   0.01  -0.02
                     19                     20                     21
                      A                      A                      A
 Frequencies --    895.2515               907.7713               918.7932
 Red. masses --      1.9437                 1.5866                 1.2476
 Frc consts  --      0.9178                 0.7703                 0.6205
 IR Inten    --     13.0709                12.9368                 1.2299
  Atom  AN      X      Y      Z        X      Y      Z        X      Y      Z
     1   6    -0.01   0.03   0.01    -0.00  -0.01   0.02    -0.01  -0.02   0.01
     2   6    -0.03  -0.00  -0.00     0.03   0.01   0.03     0.06   0.02   0.05
     3   6     0.10   0.08  -0.04     0.04   0.04  -0.03    -0.02  -0.01  -0.01
     4   6    -0.10   0.08   0.04     0.04  -0.04  -0.03     0.02  -0.01   0.01
     5   6     0.03  -0.00   0.00     0.03  -0.01   0.03    -0.06   0.02  -0.05
     6   6     0.03  -0.07   0.06     0.02  -0.07   0.04    -0.00  -0.03   0.02
     7   6     0.01   0.03  -0.01    -0.00   0.01   0.02     0.01  -0.02  -0.01
     8   6    -0.03  -0.07  -0.06     0.02   0.07   0.04     0.00  -0.03  -0.02
     9   6     0.11  -0.00   0.05    -0.10  -0.03  -0.05     0.02   0.02   0.04
    10   6    -0.11  -0.00  -0.05    -0.10   0.03  -0.05    -0.02   0.02  -0.04
    11   1     0.01   0.06  -0.12    -0.08   0.02  -0.12     0.00  -0.00  -0.04
    12   1    -0.01  -0.23   0.03    -0.33   0.03  -0.16    -0.37   0.19  -0.19
    13   1    -0.03   0.04  -0.24     0.35   0.00   0.04     0.44  -0.02   0.23
    14   1     0.03   0.04   0.24     0.35  -0.00   0.04    -0.44  -0.02  -0.23
    15   1     0.01  -0.23  -0.03    -0.33  -0.03  -0.16     0.37   0.19   0.19
    16   1    -0.17  -0.11  -0.09    -0.01  -0.10   0.00     0.04  -0.02   0.06
    17   1    -0.01   0.06   0.12    -0.08  -0.02  -0.12    -0.00  -0.00   0.04
    18   1     0.17  -0.11   0.09    -0.01   0.10   0.00    -0.04  -0.02  -0.06
    19   1     0.17   0.14  -0.36    -0.15  -0.13   0.28     0.03   0.08  -0.07
    20   1    -0.24  -0.22   0.02     0.23   0.10  -0.06    -0.11  -0.02   0.06
    21   1    -0.17   0.14   0.36    -0.15   0.13   0.28    -0.03   0.08   0.07
    22   1     0.24  -0.22  -0.02     0.23  -0.10  -0.06     0.11  -0.02  -0.06
                     22                     23                     24
                      A                      A                      A
 Frequencies --    942.7135               947.5435               953.3092
 Red. masses --      1.7954                 1.5557                 1.3200
 Frc consts  --      0.9401                 0.8230                 0.7068
 IR Inten    --     11.1824                 1.4902                 4.2379
  Atom  AN      X      Y      Z        X      Y      Z        X      Y      Z
     1   6    -0.04  -0.03   0.01     0.08  -0.01   0.03    -0.08   0.01  -0.05
     2   6     0.04   0.02  -0.01    -0.02  -0.00   0.00     0.02  -0.01   0.02
     3   6    -0.06  -0.02   0.05     0.02   0.01  -0.04     0.00   0.00  -0.01
     4   6    -0.06   0.02   0.05    -0.02   0.01   0.04     0.00  -0.00  -0.01
     5   6     0.04  -0.02  -0.01     0.02  -0.00  -0.00     0.02   0.01   0.02
     6   6     0.03   0.09  -0.01    -0.06  -0.06  -0.02     0.03  -0.02   0.02
     7   6    -0.04   0.03   0.01    -0.08  -0.01  -0.03    -0.08  -0.01  -0.05
     8   6     0.03  -0.09  -0.01     0.06  -0.06   0.02     0.03   0.02   0.02
     9   6     0.03   0.08  -0.09     0.01   0.07  -0.06     0.01  -0.02   0.02
    10   6     0.03  -0.08  -0.09    -0.01   0.07   0.06     0.01   0.02   0.02
    11   1    -0.02  -0.08   0.22    -0.36   0.07  -0.33     0.53  -0.05   0.28
    12   1    -0.11   0.19  -0.11     0.05  -0.05   0.04    -0.13   0.03  -0.06
    13   1     0.06   0.07   0.39     0.16  -0.05  -0.13     0.03  -0.02  -0.05
    14   1     0.06  -0.07   0.39    -0.16  -0.05   0.13     0.03   0.02  -0.05
    15   1    -0.11  -0.19  -0.11    -0.05  -0.05  -0.04    -0.13  -0.03  -0.06
    16   1    -0.07   0.34   0.10     0.28  -0.23   0.08    -0.24  -0.05  -0.18
    17   1    -0.02   0.08   0.22     0.36   0.07   0.33     0.53   0.05   0.28
    18   1    -0.07  -0.34   0.10    -0.28  -0.23  -0.08    -0.24   0.05  -0.18
    19   1    -0.02   0.08   0.08    -0.02   0.04   0.08    -0.01   0.05  -0.01
    20   1     0.13   0.17  -0.07     0.10   0.15  -0.04    -0.03  -0.09  -0.00
    21   1    -0.02  -0.08   0.08     0.02   0.04  -0.08    -0.01  -0.05  -0.01
    22   1     0.13  -0.17  -0.07    -0.10   0.15   0.04    -0.03   0.09  -0.00
                     25                     26                     27
                      A                      A                      A
 Frequencies --    954.8880               979.5349               979.5977
 Red. masses --      1.5649                 1.6010                 1.6507
 Frc consts  --      0.8407                 0.9051                 0.9333
 IR Inten    --      0.0636                 5.1123                12.5107
  Atom  AN      X      Y      Z        X      Y      Z        X      Y      Z
     1   6    -0.05   0.02  -0.05     0.01   0.01  -0.02     0.02  -0.03  -0.01
     2   6     0.01  -0.02   0.03    -0.01   0.01   0.00     0.02   0.01   0.00
     3   6     0.01   0.02  -0.05    -0.03  -0.06   0.06    -0.10  -0.04   0.01
     4   6    -0.01   0.02   0.05     0.04  -0.06  -0.06    -0.10   0.04   0.01
     5   6    -0.01  -0.02  -0.03     0.01   0.01  -0.00     0.02  -0.01   0.00
     6   6    -0.01  -0.06   0.01    -0.01  -0.07   0.05    -0.06  -0.06   0.01
     7   6     0.05   0.02   0.05    -0.01   0.01   0.02     0.02   0.03  -0.01
     8   6     0.01  -0.06  -0.01     0.01  -0.07  -0.05    -0.06   0.06   0.01
     9   6    -0.02   0.07  -0.08    -0.02   0.06   0.07     0.07  -0.07  -0.00
    10   6     0.02   0.07   0.08     0.02   0.06  -0.07     0.07   0.07  -0.00
    11   1     0.47  -0.02   0.14     0.09   0.05  -0.14     0.03  -0.00  -0.09
    12   1    -0.09  -0.05  -0.02     0.09   0.10   0.05    -0.04   0.17  -0.05
    13   1     0.11  -0.05  -0.17    -0.30  -0.02   0.04     0.22   0.01   0.31
    14   1    -0.11  -0.05   0.17     0.29  -0.02  -0.05     0.23  -0.01   0.31
    15   1     0.09  -0.05   0.02    -0.09   0.11  -0.05    -0.04  -0.16  -0.05
    16   1    -0.11  -0.22  -0.17    -0.04  -0.14  -0.02     0.13  -0.15   0.07
    17   1    -0.47  -0.02  -0.14    -0.09   0.05   0.14     0.03   0.00  -0.09
    18   1     0.11  -0.22   0.17     0.04  -0.14   0.02     0.13   0.14   0.07
    19   1    -0.03  -0.06   0.10    -0.12   0.30   0.09     0.11  -0.05  -0.17
    20   1     0.15   0.22  -0.05    -0.27   0.27   0.24     0.07  -0.40  -0.17
    21   1     0.03  -0.06  -0.10     0.12   0.30  -0.08     0.11   0.06  -0.17
    22   1    -0.15   0.22   0.05     0.27   0.26  -0.24     0.08   0.40  -0.18
                     28                     29                     30
                      A                      A                      A
 Frequencies --    985.1912              1062.9218              1062.9637
 Red. masses --      1.5841                 1.7278                 1.8077
 Frc consts  --      0.9059                 1.1501                 1.2034
 IR Inten    --     19.7578                 0.1047                 5.4030
  Atom  AN      X      Y      Z        X      Y      Z        X      Y      Z
     1   6     0.00  -0.03   0.02    -0.04  -0.09   0.03    -0.04  -0.10   0.04
     2   6     0.02  -0.02  -0.01     0.05   0.06  -0.08     0.04   0.07  -0.09
     3   6    -0.01   0.07  -0.08     0.04   0.04  -0.02     0.05   0.05  -0.02
     4   6    -0.01  -0.07  -0.08    -0.04   0.04   0.02     0.05  -0.05  -0.02
     5   6     0.02   0.02  -0.01    -0.05   0.07   0.08     0.04  -0.07  -0.08
     6   6    -0.03   0.03  -0.05    -0.02  -0.05   0.03    -0.01  -0.05   0.03
     7   6     0.00   0.03   0.02     0.04  -0.10  -0.03    -0.04   0.10   0.03
     8   6    -0.03  -0.03  -0.05     0.02  -0.05  -0.03    -0.01   0.05   0.03
     9   6     0.01   0.02   0.09     0.01   0.02  -0.02    -0.01  -0.03   0.02
    10   6     0.01  -0.02   0.09    -0.01   0.02   0.02    -0.01   0.03   0.02
    11   1    -0.05  -0.06   0.11    -0.22  -0.20   0.35    -0.23  -0.21   0.34
    12   1    -0.10  -0.11  -0.06     0.18   0.42  -0.06     0.23   0.41  -0.04
    13   1     0.42   0.05   0.10    -0.07   0.04  -0.10    -0.13   0.06  -0.11
    14   1     0.42  -0.05   0.10     0.08   0.04   0.10    -0.13  -0.06  -0.11
    15   1    -0.10   0.11  -0.06    -0.18   0.44   0.06     0.22  -0.39  -0.03
    16   1     0.11   0.03   0.04    -0.05  -0.08  -0.00    -0.06  -0.07   0.00
    17   1    -0.05   0.06   0.11     0.23  -0.21  -0.36    -0.23   0.20   0.33
    18   1     0.11  -0.03   0.04     0.05  -0.08   0.00    -0.05   0.07   0.00
    19   1    -0.10   0.35   0.01     0.01   0.01  -0.03    -0.02  -0.01   0.01
    20   1    -0.27   0.01   0.16     0.01   0.06  -0.00    -0.03  -0.06   0.01
    21   1    -0.10  -0.35   0.01    -0.01   0.01   0.03    -0.02   0.01   0.01
    22   1    -0.27  -0.01   0.16    -0.01   0.06   0.00    -0.03   0.06   0.01
                     31                     32                     33
                      A                      A                      A
 Frequencies --   1101.6844              1102.7775              1118.7741
 Red. masses --      1.1482                 1.1911                 1.3457
 Frc consts  --      0.8211                 0.8534                 0.9924
 IR Inten    --      0.2805                 0.4185                 0.5586
  Atom  AN      X      Y      Z        X      Y      Z        X      Y      Z
     1   6    -0.01  -0.02   0.01    -0.01  -0.03   0.01     0.01  -0.06  -0.03
     2   6     0.01  -0.03  -0.00     0.01  -0.03  -0.02     0.03  -0.01  -0.06
     3   6    -0.00   0.05   0.00    -0.01   0.07   0.00     0.01   0.02   0.01
     4   6    -0.00  -0.05   0.00     0.01   0.07  -0.00    -0.01   0.02  -0.01
     5   6     0.01   0.03  -0.00    -0.01  -0.03   0.02    -0.03  -0.01   0.06
     6   6     0.04  -0.00  -0.02     0.01  -0.01  -0.03    -0.05  -0.02   0.02
     7   6    -0.01   0.02   0.01     0.01  -0.03  -0.01    -0.01  -0.06   0.03
     8   6     0.04   0.00  -0.02    -0.01  -0.01   0.03     0.05  -0.02  -0.02
     9   6    -0.01  -0.01  -0.00     0.00   0.02  -0.00     0.01   0.04  -0.03
    10   6    -0.01   0.01  -0.00    -0.00   0.02   0.00    -0.01   0.04   0.03
    11   1    -0.13  -0.07   0.17    -0.12  -0.08   0.17     0.17   0.00  -0.25
    12   1    -0.08  -0.32  -0.02    -0.09  -0.34  -0.04    -0.01  -0.11  -0.08
    13   1    -0.18   0.21   0.31    -0.12   0.24   0.39    -0.09   0.10   0.15
    14   1    -0.18  -0.21   0.31     0.12   0.24  -0.39     0.09   0.10  -0.15
    15   1    -0.08   0.32  -0.02     0.09  -0.34   0.04     0.01  -0.11   0.08
    16   1     0.06  -0.23  -0.18     0.08  -0.20  -0.13    -0.09   0.33   0.27
    17   1    -0.13   0.07   0.17     0.12  -0.08  -0.17    -0.17   0.00   0.25
    18   1     0.06   0.23  -0.18    -0.08  -0.20   0.13     0.09   0.33  -0.27
    19   1     0.11  -0.22  -0.10    -0.04   0.08   0.05     0.15  -0.23  -0.17
    20   1    -0.01   0.02   0.02    -0.02   0.07   0.03    -0.02   0.20   0.05
    21   1     0.11   0.22  -0.10     0.04   0.08  -0.05    -0.15  -0.23   0.17
    22   1    -0.01  -0.02   0.02     0.02   0.07  -0.03     0.02   0.20  -0.05
                     34                     35                     36
                      A                      A                      A
 Frequencies --   1124.7566              1130.5692              1142.9028
 Red. masses --      1.3775                 1.1993                 1.1737
 Frc consts  --      1.0267                 0.9032                 0.9033
 IR Inten    --      1.7858                 5.8212                 4.5779
  Atom  AN      X      Y      Z        X      Y      Z        X      Y      Z
     1   6    -0.00  -0.06  -0.03    -0.01  -0.03  -0.01    -0.01   0.02   0.01
     2   6     0.04  -0.01  -0.06     0.02   0.00  -0.03    -0.00   0.00   0.03
     3   6     0.00   0.02  -0.01    -0.02   0.01  -0.03    -0.05  -0.01  -0.04
     4   6     0.00  -0.02  -0.01     0.02   0.01   0.03    -0.05   0.01  -0.04
     5   6     0.04   0.01  -0.06    -0.02   0.00   0.03    -0.00  -0.00   0.03
     6   6    -0.00  -0.02   0.05     0.03  -0.01   0.05     0.03   0.00   0.02
     7   6    -0.00   0.06  -0.03     0.01  -0.03   0.01    -0.01  -0.02   0.01
     8   6    -0.00   0.02   0.05    -0.03  -0.01  -0.05     0.03  -0.00   0.02
     9   6    -0.03  -0.03   0.04     0.02   0.00  -0.03     0.00   0.03   0.00
    10   6    -0.03   0.03   0.04    -0.02   0.00   0.03     0.00  -0.03   0.00
    11   1     0.17   0.02  -0.30     0.06   0.01  -0.17    -0.05   0.01   0.03
    12   1     0.01  -0.14  -0.07     0.04  -0.03  -0.02     0.03   0.21   0.02
    13   1    -0.10   0.11   0.15    -0.01   0.04   0.06     0.25  -0.09  -0.09
    14   1    -0.10  -0.11   0.15     0.01   0.04  -0.06     0.25   0.09  -0.09
    15   1     0.01   0.14  -0.07    -0.04  -0.03   0.02     0.03  -0.21   0.02
    16   1    -0.16   0.35   0.24    -0.12   0.17   0.10    -0.02  -0.05  -0.05
    17   1     0.17  -0.02  -0.30    -0.06   0.01   0.17    -0.05  -0.01   0.03
    18   1    -0.16  -0.35   0.24     0.12   0.17  -0.10    -0.02   0.05  -0.05
    19   1     0.07  -0.19  -0.08    -0.22   0.41   0.24     0.23  -0.34  -0.27
    20   1    -0.13   0.07   0.13     0.18  -0.23  -0.19    -0.14   0.27   0.15
    21   1     0.07   0.19  -0.08     0.22   0.41  -0.24     0.23   0.34  -0.27
    22   1    -0.13  -0.07   0.13    -0.18  -0.23   0.19    -0.14  -0.27   0.15
                     37                     38                     39
                      A                      A                      A
 Frequencies --   1276.3455              1280.8068              1311.1482
 Red. masses --      1.6307                 1.6249                 1.6453
 Frc consts  --      1.5652                 1.5705                 1.6665
 IR Inten    --      3.6468                 2.4400                 1.6921
  Atom  AN      X      Y      Z        X      Y      Z        X      Y      Z
     1   6    -0.02   0.02   0.03     0.01  -0.02  -0.03    -0.02  -0.04   0.03
     2   6     0.01  -0.03  -0.02    -0.01   0.03   0.02    -0.02  -0.04   0.03
     3   6    -0.02  -0.03   0.01     0.02   0.03  -0.01     0.06  -0.01  -0.08
     4   6    -0.02   0.03   0.01    -0.02   0.03   0.01    -0.06  -0.01   0.08
     5   6     0.01   0.03  -0.02     0.01   0.03  -0.02     0.02  -0.04  -0.03
     6   6    -0.01  -0.02   0.02     0.01   0.02  -0.03    -0.00   0.09   0.01
     7   6    -0.02  -0.02   0.03    -0.01  -0.02   0.03     0.02  -0.04  -0.03
     8   6    -0.01   0.02   0.02    -0.01   0.02   0.03     0.00   0.09  -0.01
     9   6     0.06  -0.12  -0.07     0.06  -0.11  -0.07     0.03  -0.04  -0.03
    10   6     0.06   0.12  -0.07    -0.06  -0.11   0.07    -0.03  -0.04   0.03
    11   1     0.05   0.06  -0.10    -0.05  -0.06   0.10     0.19   0.07  -0.32
    12   1     0.05   0.10  -0.02    -0.05  -0.11   0.02     0.06   0.36   0.03
    13   1    -0.10   0.03   0.14     0.11  -0.04  -0.14    -0.14   0.16   0.24
    14   1    -0.10  -0.03   0.14    -0.11  -0.04   0.14     0.14   0.16  -0.24
    15   1     0.05  -0.10  -0.02     0.05  -0.11  -0.02    -0.06   0.36  -0.03
    16   1     0.03  -0.19  -0.07    -0.03   0.18   0.06     0.07  -0.21  -0.17
    17   1     0.05  -0.06  -0.10     0.05  -0.06  -0.10    -0.19   0.07   0.32
    18   1     0.03   0.19  -0.07     0.03   0.18  -0.06    -0.07  -0.21   0.17
    19   1    -0.12   0.22   0.12    -0.13   0.22   0.13     0.01   0.00  -0.02
    20   1    -0.24   0.41   0.26    -0.24   0.41   0.26    -0.04   0.07   0.05
    21   1    -0.12  -0.22   0.12     0.13   0.22  -0.13    -0.01   0.00   0.02
    22   1    -0.24  -0.41   0.26     0.24   0.41  -0.26     0.04   0.07  -0.05
                     40                     41                     42
                      A                      A                      A
 Frequencies --   1311.5836              1408.3407              1417.6722
 Red. masses --      1.6420                 2.4760                 2.1140
 Frc consts  --      1.6642                 2.8935                 2.5032
 IR Inten    --      2.1340                17.1418                 9.6132
  Atom  AN      X      Y      Z        X      Y      Z        X      Y      Z
     1   6    -0.02  -0.04   0.03    -0.07  -0.09   0.10    -0.06  -0.10   0.08
     2   6    -0.02  -0.04   0.03     0.05   0.18  -0.02     0.05   0.11  -0.06
     3   6     0.06  -0.01  -0.08     0.00  -0.07   0.02    -0.05  -0.00   0.06
     4   6     0.06   0.01  -0.08    -0.00  -0.07  -0.02    -0.05   0.00   0.06
     5   6    -0.02   0.04   0.03    -0.05   0.18   0.02     0.05  -0.11  -0.06
     6   6    -0.01   0.09   0.01     0.02   0.05  -0.03     0.01   0.08   0.01
     7   6    -0.02   0.04   0.03     0.07  -0.09  -0.10    -0.06   0.10   0.08
     8   6    -0.01  -0.09   0.01    -0.02   0.05   0.03     0.01  -0.08   0.01
     9   6    -0.03   0.05   0.03     0.01   0.02  -0.01     0.01   0.02  -0.01
    10   6    -0.03  -0.05   0.03    -0.01   0.02   0.01     0.01  -0.02  -0.01
    11   1     0.19   0.07  -0.32     0.15   0.01  -0.24     0.17   0.01  -0.30
    12   1     0.06   0.37   0.03    -0.06  -0.39  -0.03    -0.02  -0.30  -0.07
    13   1    -0.13   0.16   0.24    -0.03  -0.14  -0.15     0.13  -0.16  -0.25
    14   1    -0.13  -0.16   0.24     0.03  -0.14   0.15     0.13   0.16  -0.25
    15   1     0.06  -0.37   0.03     0.06  -0.39   0.03    -0.02   0.30  -0.07
    16   1     0.07  -0.21  -0.17     0.07  -0.15  -0.15     0.08  -0.25  -0.20
    17   1     0.19  -0.07  -0.32    -0.15   0.01   0.24     0.17  -0.01  -0.30
    18   1     0.07   0.21  -0.16    -0.07  -0.15   0.15     0.08   0.25  -0.20
    19   1    -0.01   0.01   0.02     0.00  -0.16   0.18     0.04   0.05  -0.10
    20   1     0.04  -0.07  -0.05    -0.18  -0.11  -0.02     0.07   0.05  -0.02
    21   1    -0.01  -0.01   0.02    -0.00  -0.16  -0.18     0.04  -0.05  -0.10
    22   1     0.05   0.07  -0.05     0.18  -0.11   0.02     0.07  -0.05  -0.02
                     43                     44                     45
                      A                      A                      A
 Frequencies --   1438.1026              1447.0066              1458.0805
 Red. masses --      2.1211                 1.2013                 1.3660
 Frc consts  --      2.5845                 1.4820                 1.7111
 IR Inten    --      3.0784                15.0474                 2.4593
  Atom  AN      X      Y      Z        X      Y      Z        X      Y      Z
     1   6    -0.01  -0.05   0.00    -0.01   0.01   0.01     0.01  -0.00  -0.02
     2   6     0.03  -0.04  -0.07    -0.00   0.02   0.02     0.00  -0.07  -0.03
     3   6    -0.06   0.09   0.09     0.01  -0.02  -0.03    -0.03   0.07   0.04
     4   6     0.06   0.09  -0.09     0.01   0.02  -0.03     0.03   0.07  -0.04
     5   6    -0.03  -0.04   0.07    -0.00  -0.02   0.02    -0.00  -0.07   0.03
     6   6    -0.03   0.08   0.06     0.01  -0.02  -0.02    -0.02   0.02   0.03
     7   6     0.01  -0.05  -0.00    -0.01  -0.01   0.01    -0.01  -0.00   0.02
     8   6     0.03   0.08  -0.06     0.01   0.02  -0.02     0.02   0.02  -0.03
     9   6    -0.04  -0.07   0.05    -0.04  -0.05   0.04     0.02   0.02  -0.02
    10   6     0.04  -0.07  -0.05    -0.04   0.05   0.04    -0.02   0.02   0.02
    11   1     0.10  -0.01  -0.18    -0.01   0.01   0.03     0.02  -0.00  -0.03
    12   1     0.03  -0.06  -0.09    -0.01  -0.01   0.02     0.05   0.09  -0.03
    13   1     0.23  -0.09  -0.25    -0.05   0.02   0.07     0.12   0.01  -0.08
    14   1    -0.23  -0.09   0.25    -0.05  -0.02   0.07    -0.12   0.01   0.08
    15   1    -0.03  -0.06   0.09    -0.01   0.01   0.02    -0.05   0.09   0.03
    16   1     0.06  -0.25  -0.13    -0.02   0.06   0.03     0.00  -0.07  -0.01
    17   1    -0.10  -0.01   0.18    -0.01  -0.01   0.03    -0.02  -0.00   0.03
    18   1    -0.06  -0.25   0.13    -0.02  -0.06   0.03    -0.00  -0.07   0.01
    19   1    -0.03   0.18  -0.25     0.00   0.27  -0.41    -0.03  -0.24   0.39
    20   1     0.26   0.14   0.07     0.44   0.22   0.04    -0.44  -0.21   0.00
    21   1     0.03   0.18   0.25     0.00  -0.27  -0.41     0.03  -0.24  -0.39
    22   1    -0.26   0.14  -0.07     0.44  -0.22   0.04     0.44  -0.21  -0.00
                     46                     47                     48
                      A                      A                      A
 Frequencies --   1486.8984              1578.9473              1586.5215
 Red. masses --      3.9894                 4.5528                 4.7366
 Frc consts  --      5.1966                 6.6875                 7.0244
 IR Inten    --      1.1203                 4.2700                 0.6285
  Atom  AN      X      Y      Z        X      Y      Z        X      Y      Z
     1   6     0.06  -0.01  -0.11    -0.11   0.08   0.21     0.12  -0.08  -0.24
     2   6     0.00  -0.20  -0.08     0.01  -0.14  -0.08    -0.02   0.11   0.07
     3   6    -0.04   0.18   0.13    -0.02   0.10   0.08     0.03  -0.07  -0.06
     4   6    -0.04  -0.18   0.13    -0.02  -0.10   0.08    -0.03  -0.07   0.06
     5   6     0.00   0.20  -0.08     0.01   0.14  -0.08     0.02   0.11  -0.07
     6   6    -0.07   0.07   0.12     0.09  -0.11  -0.18    -0.10   0.12   0.20
     7   6     0.06   0.01  -0.11    -0.11  -0.08   0.21    -0.12  -0.08   0.24
     8   6    -0.07  -0.07   0.12     0.09   0.11  -0.18     0.10   0.12  -0.20
     9   6    -0.00   0.02  -0.01    -0.01   0.01   0.02    -0.01   0.01   0.02
    10   6    -0.00  -0.02  -0.01    -0.01  -0.01   0.02     0.01   0.01  -0.02
    11   1     0.01  -0.05  -0.01     0.14   0.24  -0.20    -0.15  -0.25   0.21
    12   1     0.06   0.16  -0.11     0.13   0.27  -0.08    -0.10  -0.24   0.09
    13   1     0.16   0.03  -0.23     0.05   0.03  -0.11    -0.05  -0.02   0.08
    14   1     0.16  -0.03  -0.23     0.05  -0.03  -0.11     0.05  -0.02  -0.08
    15   1     0.06  -0.16  -0.11     0.13  -0.27  -0.08     0.10  -0.24  -0.09
    16   1     0.00  -0.20  -0.02     0.01   0.25  -0.01    -0.03  -0.26   0.01
    17   1     0.01   0.05  -0.01     0.14  -0.24  -0.20     0.15  -0.25  -0.21
    18   1     0.00   0.20  -0.02     0.01  -0.25  -0.01     0.03  -0.26  -0.01
    19   1     0.02   0.16  -0.21     0.04  -0.09  -0.03     0.05  -0.10  -0.01
    20   1     0.32   0.14  -0.05     0.04  -0.16  -0.08     0.01  -0.17  -0.07
    21   1     0.02  -0.16  -0.21     0.04   0.09  -0.03    -0.05  -0.10   0.01
    22   1     0.33  -0.14  -0.05     0.04   0.16  -0.08    -0.01  -0.17   0.07
                     49                     50                     51
                      A                      A                      A
 Frequencies --   2978.3824              2978.4818              3092.4363
 Red. masses --      1.0726                 1.0728                 1.0869
 Frc consts  --      5.6059                 5.6076                 6.1239
 IR Inten    --     75.1726                10.2037                15.2203
  Atom  AN      X      Y      Z        X      Y      Z        X      Y      Z
     1   6     0.00   0.00  -0.00    -0.00  -0.00   0.00    -0.00   0.00  -0.00
     2   6    -0.00  -0.00   0.00     0.00   0.00  -0.00     0.00  -0.00  -0.00
     3   6    -0.00  -0.00  -0.00     0.00   0.00   0.00    -0.00   0.00  -0.00
     4   6    -0.00   0.00  -0.00    -0.00   0.00  -0.00     0.00   0.00   0.00
     5   6    -0.00   0.00   0.00    -0.00   0.00   0.00    -0.00  -0.00   0.00
     6   6    -0.00   0.00  -0.00     0.00  -0.00   0.00    -0.00  -0.00   0.00
     7   6     0.00  -0.00  -0.00     0.00  -0.00  -0.00     0.00   0.00   0.00
     8   6    -0.00  -0.00  -0.00    -0.00  -0.00  -0.00     0.00  -0.00  -0.00
     9   6    -0.05  -0.02  -0.01    -0.05  -0.02  -0.01     0.02  -0.02   0.05
    10   6    -0.05   0.02  -0.01     0.05  -0.02   0.01    -0.02  -0.02  -0.05
    11   1    -0.00  -0.00  -0.00     0.00   0.00   0.00     0.00  -0.00   0.00
    12   1     0.00   0.00  -0.00    -0.00  -0.00   0.00    -0.00   0.00   0.01
    13   1     0.00   0.01  -0.00    -0.00  -0.01   0.00    -0.00  -0.03   0.01
    14   1     0.00  -0.01  -0.00     0.00  -0.02  -0.00     0.00  -0.03  -0.01
    15   1     0.00  -0.00  -0.00     0.00  -0.00  -0.00     0.00   0.00  -0.01
    16   1    -0.00  -0.00   0.01     0.00   0.00  -0.01     0.01   0.01  -0.02
    17   1    -0.00   0.00  -0.00    -0.00   0.00  -0.00    -0.00  -0.00  -0.00
    18   1    -0.00   0.00   0.01    -0.00   0.00   0.01    -0.01   0.01   0.02
    19   1     0.62   0.23   0.20     0.63   0.24   0.20    -0.06  -0.03  -0.01
    20   1    -0.03   0.03  -0.08    -0.03   0.03  -0.07    -0.16   0.30  -0.61
    21   1     0.63  -0.24   0.20    -0.62   0.23  -0.20     0.06  -0.03   0.01
    22   1    -0.04  -0.03  -0.08     0.03   0.03   0.07     0.16   0.30   0.61
                     52                     53                     54
                      A                      A                      A
 Frequencies --   3094.2153              3187.7608              3190.3764
 Red. masses --      1.0876                 1.0873                 1.0871
 Frc consts  --      6.1353                 6.5098                 6.5192
 IR Inten    --     34.6892                 4.3653                 3.8643
  Atom  AN      X      Y      Z        X      Y      Z        X      Y      Z
     1   6    -0.00  -0.00  -0.00     0.00  -0.04  -0.01     0.00  -0.05  -0.01
     2   6    -0.00  -0.00   0.00    -0.01   0.00   0.02    -0.01   0.00   0.01
     3   6    -0.00   0.00  -0.00     0.01   0.04  -0.01     0.00   0.02  -0.01
     4   6    -0.00  -0.00  -0.00     0.01  -0.04  -0.01    -0.00   0.02   0.01
     5   6    -0.00   0.00   0.00    -0.01  -0.00   0.02     0.01   0.00  -0.01
     6   6    -0.00  -0.00   0.00     0.01   0.01  -0.01     0.01   0.01  -0.02
     7   6    -0.00   0.00  -0.00     0.00   0.04  -0.01    -0.00  -0.05   0.01
     8   6    -0.00   0.00   0.00     0.01  -0.01  -0.01    -0.01   0.01   0.02
     9   6    -0.02   0.02  -0.05    -0.00  -0.00   0.00     0.00  -0.00   0.00
    10   6    -0.02  -0.02  -0.05    -0.00   0.00   0.00    -0.00  -0.00  -0.00
    11   1    -0.00   0.00   0.00    -0.02   0.42   0.12    -0.02   0.54   0.15
    12   1     0.00  -0.00  -0.00     0.11  -0.02  -0.21     0.09  -0.02  -0.18
    13   1     0.00  -0.01   0.00    -0.09  -0.41   0.15    -0.04  -0.22   0.08
    14   1     0.00   0.01   0.00    -0.09   0.41   0.15     0.04  -0.22  -0.08
    15   1     0.00   0.00  -0.00     0.11   0.02  -0.21    -0.09  -0.02   0.18
    16   1     0.01   0.01  -0.02    -0.10  -0.12   0.16    -0.14  -0.16   0.21
    17   1    -0.00  -0.00   0.00    -0.02  -0.42   0.12     0.02   0.54  -0.15
    18   1     0.01  -0.01  -0.02    -0.10   0.12   0.16     0.14  -0.16  -0.21
    19   1     0.07   0.03   0.01     0.01   0.00   0.00    -0.00  -0.00  -0.00
    20   1     0.16  -0.30   0.61    -0.00   0.00  -0.00    -0.00   0.00  -0.00
    21   1     0.07  -0.03   0.01     0.01  -0.00   0.00     0.00  -0.00   0.00
    22   1     0.16   0.30   0.61    -0.00  -0.00  -0.00     0.00   0.00   0.00
                     55                     56                     57
                      A                      A                      A
 Frequencies --   3191.8213              3195.4548              3215.0986
 Red. masses --      1.0914                 1.0903                 1.0980
 Frc consts  --      6.5512                 6.5596                 6.6871
 IR Inten    --      1.8622                25.8041                22.7213
  Atom  AN      X      Y      Z        X      Y      Z        X      Y      Z
     1   6     0.00  -0.04  -0.01     0.00  -0.02  -0.01    -0.00   0.02   0.01
     2   6     0.00   0.00  -0.00     0.01   0.00  -0.01     0.01  -0.00  -0.02
     3   6    -0.01  -0.04   0.01    -0.01  -0.05   0.02     0.00   0.01  -0.00
     4   6    -0.01   0.04   0.01     0.01  -0.05  -0.02     0.00  -0.01  -0.00
     5   6     0.00  -0.00  -0.00    -0.01   0.00   0.01     0.01   0.00  -0.02
     6   6     0.01   0.01  -0.01     0.01   0.01  -0.01     0.03   0.03  -0.04
     7   6     0.00   0.04  -0.01    -0.00  -0.02   0.01    -0.00  -0.02   0.01
     8   6     0.01  -0.01  -0.01    -0.01   0.01   0.01     0.02  -0.02  -0.04
     9   6     0.00   0.00  -0.00    -0.00  -0.00   0.00    -0.00   0.00  -0.00
    10   6     0.00  -0.00  -0.00     0.00  -0.00  -0.00    -0.00  -0.00  -0.00
    11   1    -0.02   0.42   0.12    -0.01   0.24   0.07     0.01  -0.25  -0.07
    12   1    -0.03   0.00   0.06    -0.08   0.01   0.15    -0.13   0.03   0.26
    13   1     0.10   0.46  -0.17     0.12   0.57  -0.21    -0.02  -0.08   0.03
    14   1     0.10  -0.46  -0.17    -0.12   0.57   0.21    -0.01   0.06   0.02
    15   1    -0.03  -0.00   0.06     0.08   0.01  -0.15    -0.11  -0.02   0.21
    16   1    -0.10  -0.11   0.15    -0.06  -0.07   0.09    -0.30  -0.35   0.46
    17   1    -0.02  -0.42   0.12     0.01   0.24  -0.07     0.01   0.21  -0.06
    18   1    -0.10   0.11   0.15     0.06  -0.07  -0.09    -0.26   0.29   0.39
    19   1    -0.01  -0.00  -0.00     0.01   0.00   0.00    -0.00  -0.00  -0.00
    20   1     0.00  -0.01   0.01    -0.00   0.01  -0.03     0.00  -0.01   0.02
    21   1    -0.01   0.00  -0.00    -0.01   0.00  -0.00    -0.00   0.00  -0.00
    22   1     0.00   0.01   0.01     0.00   0.01   0.03     0.01   0.01   0.02
                     58                     59                     60
                      A                      A                      A
 Frequencies --   3215.1433              3227.3256              3227.5925
 Red. masses --      1.0983                 1.1022                 1.1023
[...]
 33595,0.00068196,0.00031438,0.00080812,-0.00846690,0.05184010,-0.00165
 859,0.00551111,-0.00426361,-0.12995321,0.02542013,-0.27443297,-0.00695
 315,-0.00361296,-0.00603483,0.00013613,-0.00014671,-0.00025026,-0.0004
 3701,0.00043485,-0.00021196,-0.00196884,-0.00053614,-0.00085084,-0.000
 06659,-0.00011185,0.00059219,0.00092986,-0.00061964,-0.00069347,-0.000
 44494,-0.00033084,-0.00031545,-0.00233557,0.00133328,0.00097602,0.0005
 0963,-0.00046314,-0.00021097,0.14135546,-0.02816895,0.28615144,0.00564
 289,0.00067832,-0.00014656,0.00255214,-0.00214741,0.00226779,-0.044402
 96,-0.04416681,-0.03460252,-0.00606041,0.00650473,0.00806094,-0.001034
 38,-0.00363825,-0.00089697,-0.00245804,0.00196378,-0.00395107,-0.00080
 675,0.00096495,-0.00143754,-0.00048024,0.00107287,0.00119888,0.0011700
 3,0.00054424,0.00078368,-0.00187150,-0.01695395,-0.00199853,0.00048878
 ,-0.00008603,0.00007567,-0.00277701,0.00017832,0.00195868,0.04748859,0
 .00035445,-0.00383917,0.00243944,-0.00566548,-0.01333413,-0.01342860,-
 0.05129456,-0.29772904,-0.08817089,-0.00011805,-0.00032920,-0.00009632
 ,-0.00000307,0.00015529,-0.00005902,0.00071153,-0.00023158,0.00078287,
 -0.00003540,0.00039351,-0.00003325,-0.00018025,-0.00006465,0.00030447,
 -0.00004771,-0.00011726,-0.00022026,0.00203861,0.00224824,0.00217973,-
 0.00094236,-0.00056019,-0.00052091,0.00025222,0.00064871,0.00035042,0.
 05585391,0.31168478,-0.00374205,0.00276919,-0.00232005,0.00469899,0.01
 957859,0.00994513,-0.03508136,-0.09636108,-0.07783027,0.00371576,-0.00
 435842,-0.00481386,0.00043222,0.00182440,0.00054529,-0.00308059,-0.001
 33620,-0.00289402,0.00026193,-0.00030523,0.00037978,0.00023547,0.00006
 552,-0.00059686,-0.00091019,-0.00017920,0.00003414,0.00316096,-0.01739
 105,-0.00301313,0.00042433,0.00066805,0.00069332,0.00183042,-0.0013719
 3,-0.00073323,0.02970167,0.09654642,0.07865716,-0.00080682,-0.00096520
 ,-0.00143758,-0.00103433,0.00363823,-0.00089737,-0.00606052,-0.0065040
 0,0.00806173,-0.04440478,0.04416815,-0.03460888,0.00255213,0.00214781,
 0.00226746,-0.00048029,-0.00107286,0.00119911,0.00564278,-0.00067814,-
 0.00014659,-0.00245808,-0.00196409,-0.00395084,-0.00187180,0.01695380,
 -0.00200029,0.00117000,-0.00054417,0.00078378,0.00012337,-0.00002087,-
 0.00013133,0.00012285,0.00000960,-0.00001537,0.00060922,-0.00023728,-0
 .00004134,0.04749117,0.00003541,0.00039353,0.00003323,0.00000309,0.000
 15516,0.00005904,0.00011835,-0.00032885,0.00009601,0.05129581,-0.29770
 891,0.08819262,0.00566636,-0.01333465,0.01343091,0.00018028,-0.0000646
 9,-0.00030451,-0.00035471,-0.00383971,-0.00243928,-0.00071190,-0.00023
 155,-0.00078320,-0.00203837,0.00225004,-0.00218026,0.00004766,-0.00011
 725,0.00022030,-0.00005156,0.00004955,0.00002262,0.00003845,0.00000589
 ,-0.00006206,0.00023729,0.00061651,0.00001449,-0.05585605,0.31166345,0
 .00026197,0.00030528,0.00037981,0.00043220,-0.00182446,0.00054551,0.00
 371592,0.00435811,-0.00481453,-0.03508864,0.09638293,-0.07784843,0.004
 69879,-0.01957620,0.00994561,0.00023549,-0.00006555,-0.00059690,-0.003
 74205,-0.00276911,-0.00231944,-0.00308051,0.00133583,-0.00289399,0.003
 16081,0.01739047,-0.00301471,-0.00091026,0.00017923,0.00003411,-0.0000
 8341,-0.00003426,0.00003928,-0.00012825,0.00000451,0.00010127,-0.00004
 137,-0.00001462,-0.00041472,0.02970932,-0.09656945,0.07867644,-0.00063
 079,-0.00065305,-0.00178359,0.00093161,0.00175373,0.00049483,-0.000804
 92,-0.00075455,0.00152152,0.00259535,0.00129799,-0.00153511,-0.0977205
 9,-0.00726365,-0.13146947,-0.00228389,-0.00060728,0.00280327,-0.004073
 73,-0.00423429,-0.00822257,0.00094256,0.00240549,-0.00123384,0.0047995
 8,0.00006774,-0.00359082,0.00002830,-0.00030248,0.00011532,-0.00003138
 ,0.00000877,-0.00004055,-0.00015872,0.00004586,0.00002303,0.00012286,-
 0.00003846,-0.00012826,-0.00277697,-0.00025208,0.00183045,0.09963276,0
 .00016756,-0.00005513,-0.00012037,0.00030752,-0.00020677,0.00024663,-0
 .00015092,-0.00013501,-0.00021506,-0.01373603,0.00505888,-0.02110788,-
 0.00623059,-0.05900666,-0.02610056,-0.00034719,0.00003041,0.00031083,0
 .00815672,0.00843753,0.01941052,0.00235504,-0.00403904,0.00270737,0.00
 154863,-0.00387920,-0.00333554,0.00029356,0.00005693,-0.00032721,0.000
 03286,0.00000561,0.00000948,-0.00004586,-0.00003891,0.00000235,-0.0000
 0959,0.00000589,-0.00000451,-0.00017819,0.00064881,0.00137183,0.008482
 04,0.05184590,-0.00006659,0.00011193,0.00059229,-0.00043704,-0.0004349
 3,-0.00021199,0.00013622,0.00014675,-0.00025032,-0.00695190,0.00361175
 ,-0.00603290,-0.12995391,-0.02544426,-0.27442716,0.00093003,0.00061965
 ,-0.00069371,-0.00165909,-0.00551237,-0.00426476,-0.00196907,0.0005363
 5,-0.00085119,-0.00233571,-0.00133280,0.00097656,-0.00044501,0.0003308
 1,-0.00031545,0.00002103,-0.00002692,0.00000985,0.00002304,-0.00000234
 ,0.00008895,-0.00001538,0.00006207,0.00010127,0.00195871,-0.00035053,-
 0.00073337,0.14135553,0.02819511,0.28614486,-0.00064667,-0.00758224,-0
 .00483723,0.00355046,0.00019361,-0.00501802,-0.00100202,0.00022068,-0.
 00083124,0.00015035,0.00006787,0.00014333,-0.00004626,0.00008761,-0.00
 033874,-0.10250831,-0.07664022,-0.11102692,0.00035387,-0.00021865,0.00
 018654,-0.00000010,-0.00003084,-0.00026011,0.00015582,0.00028996,0.000
 23718,0.00129877,0.00293848,0.00383463,-0.00328161,0.00064960,0.002277
 57,0.00040068,-0.00095314,-0.00042764,0.00121343,-0.00017838,-0.001037
 58,-0.00000994,-0.00002665,-0.00004110,-0.00000131,-0.00014111,0.00017
 547,0.10044977,0.00663455,0.01033658,0.00921315,0.00049818,-0.00052941
 ,0.00254685,0.00108688,-0.00576867,0.00065529,0.00033897,-0.00013143,-
 0.00020304,0.00005954,0.00008446,-0.00012937,-0.07628018,-0.13958784,-
 0.10820873,-0.00005073,0.00009448,0.00005963,-0.00008739,-0.00002499,0
 .00009212,-0.00000565,0.00008995,-0.00003464,-0.01368835,-0.00464862,-
 0.01808768,-0.00011660,0.00028725,-0.00110220,0.00018742,0.00078718,0.
 00025852,-0.00124354,0.00016116,-0.00109986,0.00004525,0.00004444,-0.0
 0006133,-0.00006889,-0.00001900,0.00010649,0.08212902,0.13825960,-0.01
 007315,-0.01739768,-0.00861183,-0.00407663,0.00267023,-0.00173062,0.00
 060331,0.00190715,0.00025616,0.00008212,-0.00002227,-0.00010937,-0.000
 06956,0.00006053,0.00033479,-0.10798065,-0.10442469,-0.18618733,-0.000
 14626,0.00001413,-0.00012261,0.00001689,0.00009723,0.00015667,-0.00006
 415,-0.00015571,-0.00011081,0.00318011,0.00304456,0.00263599,0.0024856
 0,0.00018567,-0.00065637,-0.00073210,-0.00081347,-0.00018144,-0.000490
 03,0.00009748,0.00101433,-0.00001085,0.00002084,0.00004270,-0.00004889
 ,0.00002363,0.00003247,0.11751383,0.11557665,0.19282552,0.00004609,0.0
 0002319,0.00021359,0.00006461,-0.00020148,0.00014785,0.00021174,-0.000
 40501,-0.00044365,0.00119007,0.00267545,-0.00309932,0.00254211,0.01115
 205,0.00584710,0.00029328,-0.00003612,-0.00029120,-0.04278063,-0.01115
 959,-0.01235584,0.00341236,-0.01319798,-0.00221307,0.00615886,0.000100
 41,-0.00699118,0.00005036,0.00001715,0.00001887,-0.00012732,-0.0000625
 1,0.00011221,-0.00003138,-0.00003286,0.00002103,0.00012336,0.00005155,
 -0.00008341,0.00048876,0.00094243,0.00042426,-0.00087522,-0.00068193,0
 .00050965,-0.00007965,0.00000779,0.00000969,0.03259347,-0.00021924,-0.
 00012638,-0.00011479,-0.00002415,0.00012996,-0.00030019,-0.00021745,0.
 00009458,0.00024922,0.00114412,-0.00289630,0.00150181,-0.00426658,-0.0
 1053534,-0.00929508,-0.00011589,0.00016827,0.00036034,-0.00955801,-0.3
 1820704,-0.07541284,0.00170650,-0.00381186,0.00173561,0.00105157,0.000
 13054,-0.00138500,0.00003958,-0.00006486,0.00001092,0.00006251,0.00017
 178,-0.00009505,-0.00000878,0.00000561,0.00002692,0.00002086,0.0000495
 5,0.00003425,0.00008606,-0.00056018,-0.00066791,0.00007251,0.00031432,
 0.00046310,0.00010248,0.00000710,-0.00000925,0.01111566,0.33523559,0.0
 0006797,-0.00011629,0.00010110,-0.00004145,-0.00012326,0.00005137,0.00
 024277,0.00026251,-0.00013170,-0.00325319,0.00300715,-0.00104665,0.002
 28398,0.01431273,0.00853365,0.00004178,0.00010783,0.00009619,-0.012338
 50,-0.07348548,-0.07485347,0.00039354,-0.02487880,0.00171882,-0.005357
 57,-0.00150796,-0.00129932,-0.00005786,0.00001690,-0.00007670,0.000112
 20,0.00009503,-0.00005569,-0.00004055,-0.00000948,0.00000985,-0.000131
 33,-0.00002262,0.00003928,0.00007566,0.00052102,0.00069332,0.00083782,
 -0.00080814,-0.00021094,-0.00002174,-0.00001541,-0.00000183,0.01502175
 ,0.08319623,0.06729460,0.00035385,0.00021866,0.00018652,-0.00004623,-0
 .00008768,-0.00033865,0.00015038,-0.00006784,0.00014332,-0.00100189,-0
 .00022064,-0.00083109,0.00355040,-0.00019423,-0.00501810,-0.00000009,0
 .00003082,-0.00026008,-0.00064697,0.00758191,-0.00483812,-0.10251543,0
 .07663216,-0.11103897,0.00129857,-0.00293793,0.00383438,0.00015585,-0.
 00028995,0.00023719,-0.00007965,-0.00010248,-0.00002173,-0.00000131,0.
 00014111,0.00017545,-0.00000994,0.00002664,-0.00004111,0.00121335,0.00
 017828,-0.00103762,0.00040063,0.00095313,-0.00042774,0.00001386,0.0000
 0734,0.00000331,-0.00328155,-0.00064946,0.00227768,0.10045732,0.000050
 72,0.00009447,-0.00005965,-0.00005954,0.00008445,0.00012939,-0.0003389
 4,-0.00013140,0.00020303,-0.00108671,-0.00576893,-0.00065468,-0.000498
 55,-0.00052999,-0.00254707,0.00008741,-0.00002500,-0.00009212,-0.00663
 596,0.01033742,-0.00921511,0.07627262,-0.13956333,0.10820118,0.0136889
 8,-0.00464692,0.01808837,0.00000564,0.00008996,0.00003463,-0.00000779,
 0.00000710,0.00001541,0.00006887,-0.00001901,-0.00010646,-0.00004525,0
 .00004444,0.00006133,0.00124354,0.00016129,0.00109989,-0.00018750,0.00
 078726,-0.00025863,-0.00000734,0.00001157,0.00000026,0.00011677,0.0002
 8733,0.00110217,-0.08212054,0.13823302,-0.00014626,-0.00001416,-0.0001
 2260,-0.00006957,-0.00006047,0.00033475,0.00008213,0.00002226,-0.00010
 939,0.00060344,-0.00190657,0.00025636,-0.00407661,-0.00267034,-0.00172
 990,0.00001688,-0.00009721,0.00015668,-0.01007289,0.01739538,-0.008612
 30,-0.10799290,0.10441724,-0.18620651,0.00317888,-0.00304375,0.0026345
 0,-0.00006417,0.00015572,-0.00011083,0.00000969,0.00000925,-0.00000184
 ,-0.00004890,-0.00002362,0.00003247,-0.00001084,-0.00002084,0.00004269
 ,-0.00049014,-0.00009740,0.00101425,-0.00073212,0.00081331,-0.00018146
 ,0.00000331,-0.00000026,-0.00000357,0.00248565,-0.00018570,-0.00065656
 ,0.11752699,-0.11556809,0.19284612,-0.00051742,0.00000429,-0.00046437,
 -0.00035317,0.00161853,-0.00081534,-0.00188233,-0.00132685,0.00060638,
 -0.02007620,-0.00839466,0.00328944,-0.00001730,0.00211768,-0.00066313,
 -0.00050025,-0.00022236,0.00004838,0.00020303,0.00067871,0.00114600,0.
 00239382,-0.00059105,-0.00071799,-0.23302386,-0.07379115,0.06797826,-0
 .00019444,-0.00036177,0.00028419,-0.00001915,-0.00009157,-0.00000883,0
 .00020378,-0.00001584,-0.00010390,0.00031756,-0.00002989,-0.00019581,0
 .00067118,0.00054774,-0.00037818,0.00044023,-0.00006739,-0.00054449,0.
 00000790,-0.00002411,-0.00004780,-0.00020291,-0.00016892,0.00003628,-0
 .00012984,-0.00062959,-0.00015467,0.25950112,-0.00030533,0.00007447,-0
 .00034511,-0.00010538,-0.00001816,0.00012859,0.00073441,0.00021051,0.0
 0057638,0.00751417,0.00282471,-0.00115228,-0.00010364,-0.00123178,0.00
 192566,-0.00005029,-0.00025644,0.00005108,0.00135489,-0.00270222,0.000
 49742,-0.02845394,-0.01597082,0.00545298,-0.07814157,-0.06470101,0.024
 76496,0.00030865,-0.00000238,-0.00008454,0.00005146,0.00001685,-0.0000
 1756,0.00008803,-0.00003204,0.00008101,-0.00012288,0.00014191,0.000152
 17,-0.00033239,0.00002515,-0.00019875,-0.00021149,-0.00001603,-0.00001
 750,-0.00007004,0.00001581,0.00004183,0.00173607,0.00005690,-0.0014113
 4,0.00112993,0.00006017,-0.00007069,0.08308093,0.07636783,-0.00045843,
 -0.00052325,-0.00093011,0.00090525,0.00108460,-0.00013337,-0.00034188,
 -0.00018925,0.00023709,-0.01860814,-0.00815917,0.00317465,0.00045746,-
 0.00265264,-0.00009530,-0.00052983,-0.00020616,0.00106714,-0.00343188,
 0.00190294,-0.00300526,0.00269685,0.00361379,0.00023881,0.06494054,0.0
 2166928,-0.06093726,0.00024901,-0.00015221,-0.00023784,0.00002882,0.00
 001222,-0.00003124,-0.00021370,0.00002991,0.00038611,-0.00005808,0.000
 15673,0.00010065,0.00084155,0.00046533,0.00060260,0.00091981,0.0000678
 5,-0.00077854,-0.00008931,0.00000944,0.00006957,0.00031469,-0.00004713
 ,-0.00024620,-0.00024762,0.00035945,0.00023409,-0.07231004,-0.02667026
 ,0.06914718,0.00001760,-0.00013642,0.00014436,-0.00102197,-0.00041022,
 -0.00029174,-0.00123411,-0.00084999,-0.00159208,0.00349755,-0.01192821
 ,-0.01648035,-0.00310050,0.00255480,-0.00383182,0.00012434,0.00021355,
 0.00000565,0.00178009,-0.00012341,0.00088983,-0.00252069,-0.00248798,0
 .00073936,-0.05186178,0.02945919,0.04968704,-0.00033549,0.00018048,0.0
 0023292,0.00000796,0.00003458,0.00004082,-0.00026634,-0.00038693,0.000
 09296,-0.00032270,0.00032073,-0.00022770,-0.00017610,0.00029105,0.0004
 8575,-0.00047375,-0.00111109,-0.00029280,0.00012927,0.00000907,-0.0000
 4324,0.00021480,-0.00023039,-0.00018121,-0.00001849,0.00006812,0.00004
 315,-0.00670394,0.01172172,0.02501045,0.06224768,-0.00019707,-0.000258
 75,-0.00036505,-0.00020679,-0.00001642,-0.00032537,0.00027247,0.000634
 20,0.00063520,-0.00387185,0.00353686,0.00673961,0.00258322,-0.00042707
 ,0.00091694,-0.00002866,-0.00013346,0.00026031,0.00055981,-0.00607908,
 0.00034691,0.00514303,-0.00932398,-0.02861421,0.02739153,-0.09427711,-
 0.10004519,0.00021784,-0.00008366,-0.00015379,0.00002063,0.00002321,-0
 .00000963,-0.00031608,-0.00021247,0.00046651,0.00002414,0.00007250,0.0
 0016886,-0.00003786,-0.00004235,-0.00032541,0.00021156,0.00044881,-0.0
 0025627,-0.00006018,0.00000454,0.00007116,-0.00208895,-0.00048964,-0.0
 0026997,-0.00035943,0.00046575,0.00105891,-0.00218570,0.00498862,0.009
 35599,-0.02711531,0.10108665,0.00005383,-0.00027263,-0.00031116,0.0008
 6416,0.00031307,0.00087168,0.00167567,0.00014251,-0.00073776,0.0060759
 7,-0.00903827,-0.01411899,-0.00198276,-0.00046611,-0.00296938,0.000457
 68,-0.00002947,0.00066690,0.00018280,0.00202005,-0.00181175,-0.0012907
 4,0.00171741,0.00555680,0.04701607,-0.10046800,-0.25036902,0.00017101,
 0.00043283,-0.00031579,0.00005076,0.00004055,-0.00002558,0.00000808,0.
 00012738,0.00041867,-0.00054170,0.00046036,0.00050725,-0.00056695,0.00
 032737,-0.00004679,-0.00091073,-0.00098237,0.00020075,-0.00016152,0.00
 004614,0.00011394,0.00027176,-0.00001270,0.00009771,-0.00003316,-0.000
 73773,-0.00000050,0.00319156,-0.00379648,-0.00879328,-0.05446131,0.110
 24279,0.27100841,0.00020316,-0.00067848,0.00114617,-0.00001727,-0.0021
 1780,-0.00066287,-0.02007610,0.00839426,0.00328837,-0.00188239,0.00132
 692,0.00060627,-0.00035318,-0.00161862,-0.00081520,0.00239287,0.000591
 52,-0.00071784,-0.00051743,-0.00000437,-0.00046434,-0.00050022,0.00022
 235,0.00004833,-0.00019446,0.00036180,0.00028418,-0.23302879,0.0737928
 0,0.06797039,-0.00020287,0.00016891,0.00003622,0.00044023,0.00006734,-
 0.00054449,0.00067116,-0.00054775,-0.00037814,0.00031758,0.00002987,-0
 .00019583,0.00020380,0.00001584,-0.00010391,-0.00012982,0.00062957,-0.
 00015474,-0.00001916,0.00009157,-0.00000884,0.00000791,0.00002410,-0.0
 0004781,-0.00009090,0.00011531,-0.00005642,-0.00002691,0.00003170,-0.0
 0011951,0.25950668,-0.00135505,-0.00270242,-0.00049740,0.00010372,-0.0
 0123178,-0.00192556,-0.00751663,0.00282560,0.00115228,-0.00073448,0.00
 021045,-0.00057641,0.00010547,-0.00001832,-0.00012860,0.02845465,-0.01
 597090,-0.00545119,0.00030532,0.00007456,0.00034501,0.00005025,-0.0002
 5645,-0.00005097,-0.00030864,-0.00000236,0.00008454,0.07814295,-0.0647
 0089,-0.02476179,-0.00173605,0.00005702,0.00141124,0.00021159,-0.00001
 603,0.00001742,0.00033248,0.00002510,0.00019878,0.00012288,0.00014189,
 -0.00015219,-0.00008805,-0.00003205,-0.00008097,-0.00112996,0.00006013
 ,0.00007068,-0.00005146,0.00001685,0.00001756,0.00007002,0.00001581,-0
 .00004182,-0.00011532,0.00009137,-0.00008008,-0.00006139,0.00005657,-0
 .00001237,-0.08308257,0.07636804,-0.00343170,-0.00190306,-0.00300507,0
 .00045731,0.00265282,-0.00009537,-0.01860777,0.00815870,0.00317363,-0.
 00034183,0.00018929,0.00023712,0.00090525,-0.00108463,-0.00013325,0.00
 269433,-0.00361227,0.00023966,-0.00045844,0.00052315,-0.00093018,-0.00
 052979,0.00020624,0.00106709,0.00024903,0.00015219,-0.00023786,0.06493
 216,-0.02166623,-0.06093174,0.00031486,0.00004710,-0.00024634,0.000919
 82,-0.00006792,-0.00077853,0.00084153,-0.00046527,0.00060261,-0.000058
 09,-0.00015675,0.00010068,-0.00021370,-0.00002988,0.00038613,-0.000247
 51,-0.00035943,0.00023411,0.00002882,-0.00001222,-0.00003124,-0.000089
 32,-0.00000944,0.00006958,-0.00005641,0.00008007,-0.00005314,-0.000019
 08,0.00004738,-0.00001633,-0.07230124,0.02666668,0.06914094,0.00178011
 ,0.00012372,0.00088986,-0.00310030,-0.00255526,-0.00383154,0.00349719,
 0.01192663,-0.01648111,-0.00123419,0.00084984,-0.00159220,-0.00102197,
 0.00041021,-0.00029180,-0.00252068,0.00248825,0.00073828,0.00001759,0.
 00013641,0.00014436,0.00012435,-0.00021354,0.00000568,-0.00033551,-0.0
 0018047,0.00023294,-0.05186120,-0.02945410,0.04968852,0.00021476,0.000
 23038,-0.00018124,-0.00047374,0.00111102,-0.00029293,-0.00017608,-0.00
 029100,0.00048580,-0.00032276,-0.00032076,-0.00022771,-0.00026640,0.00
 038697,0.00009295,-0.00001850,-0.00006814,0.00004319,0.00000797,-0.000
 03458,0.00004082,0.00012927,-0.00000907,-0.00004324,-0.00002691,0.0000
 6138,-0.00001909,0.00004347,0.00001196,0.00004903,-0.00670389,-0.01171
 972,0.02501177,0.06224742,-0.00055961,-0.00607937,-0.00034646,-0.00258
 347,-0.00042721,-0.00091734,0.00387253,0.00353752,-0.00674171,-0.00027
 235,0.00063410,-0.00063537,0.00020684,-0.00001643,0.00032550,-0.005143
 15,-0.00932144,0.02861555,0.00019711,-0.00025869,0.00036503,0.00002870
 ,-0.00013350,-0.00026024,-0.00021783,-0.00008368,0.00015377,-0.0273866
 3,-0.09425997,0.10003108,0.00208896,-0.00048956,0.00027009,-0.00021168
 ,0.00044896,0.00025624,0.00003782,-0.00004234,0.00032543,-0.00002422,0
 .00007245,-0.00016883,0.00031610,-0.00021255,-0.00046646,0.00035943,0.
 00046572,-0.00105895,-0.00002063,0.00002321,0.00000963,0.00006016,0.00
 000453,-0.00007115,-0.00003171,0.00005657,-0.00004738,-0.00001196,0.00
 002628,-0.00005432,0.00218573,0.00498780,-0.00935651,0.02710986,0.1010
 6758,0.00018294,-0.00201962,-0.00181151,-0.00198258,0.00046579,-0.0029
 6939,0.00607564,0.00903694,-0.01411927,0.00167567,-0.00014255,-0.00073
 767,0.00086414,-0.00031303,0.00087170,-0.00129024,-0.00171602,0.005554
 22,0.00005383,0.00027264,-0.00031125,0.00045767,0.00002955,0.00066690,
 0.00017104,-0.00043287,-0.00031577,0.04701718,0.10045388,-0.25038612,0
 .00027154,0.00001277,0.00009770,-0.00091073,0.00098234,0.00020061,-0.0
 0056693,-0.00032739,-0.00004676,-0.00054169,-0.00046034,0.00050732,0.0
 0000808,-0.00012735,0.00041866,-0.00003321,0.00073768,-0.00000046,0.00
 005076,-0.00004055,-0.00002558,-0.00016153,-0.00004613,0.00011395,-0.0
 0011951,0.00001237,-0.00001633,0.00004903,0.00005432,0.00007421,0.0031
 9126,0.00379516,-0.00879250,-0.05446234,-0.11022760,0.27102735\\0.0006
 0203,0.00086398,0.00120927,0.00344262,-0.00108825,-0.00168500,0.010825
 21,-0.00061780,-0.00800030,-0.01082541,-0.00061669,0.00800044,-0.00344
 315,-0.00108904,0.00168494,0.00270623,0.00036571,-0.00109220,-0.000601
 90,0.00086436,-0.00120924,-0.00270549,0.00036436,0.00109199,-0.0018734
 5,0.00033312,0.00133884,0.00187353,0.00033223,-0.00133819,-0.00018429,
 0.00008889,0.00021423,-0.00001945,0.00004199,0.00004227,0.00021767,-0.
 00004710,-0.00017380,-0.00021759,-0.00004715,0.00017384,0.00001949,0.0
 0004207,-0.00004211,0.00016569,-0.00001302,-0.00001641,0.00018420,0.00
 008885,-0.00021413,-0.00016595,-0.00001251,0.00001596,-0.00035485,0.00
 001484,-0.00052902,0.00036588,0.00005802,0.00023083,0.00035471,0.00001
 494,0.00052904,-0.00036574,0.00005819,-0.00023123\\\@


 THE REASON MAN'S BEST FRIEND IS A DOG IS BECAUSE
 HE WAGS HIS TAIL INSTEAD OF HIS TONGUE.
 Job cpu time:       0 days  1 hours  4 minutes 10.3 seconds.
 Elapsed time:       0 days  0 hours  0 minutes 41.1 seconds.
 File lengths (MBytes):  RWF=    182 Int=      0 D2E=      0 Chk=     10 Scr=      1
 Normal termination of Gaussian 16 at Mon Jul 28 00:13:52 2025.
