 Entering Gaussian System, Link 0=g16
 Initial command:
 /home/hongchang/data/software/Gaussian/g16/l1.exe "/home/hongchang/data/software/Gaussian/g16/scratch/Gau-1365583.inp" -scrdir="/home/hongchang/data/software/Gaussian/g16/scratch/"
 Entering Link 1 = /home/hongchang/data/software/Gaussian/g16/l1.exe PID=   1365584.
  
 Copyright (c) 1988,1990,1992,1993,1995,1998,2003,2009,2016,
            Gaussian, Inc.  All Rights Reserved.
  
 This is part of the Gaussian(R) 16 program.  It is based on
 the Gaussian(R) 09 system (copyright 2009, Gaussian, Inc.),
 the Gaussian(R) 03 system (copyright 2003, Gaussian, Inc.),
 the Gaussian(R) 98 system (copyright 1998, Gaussian, Inc.),
 the Gaussian(R) 94 system (copyright 1995, Gaussian, Inc.),
 the Gaussian 92(TM) system (copyright 1992, Gaussian, Inc.),
 the Gaussian 90(TM) system (copyright 1990, Gaussian, Inc.),
 the Gaussian 88(TM) system (copyright 1988, Gaussian, Inc.),
 the Gaussian 86(TM) system (copyright 1986, Carnegie Mellon
 University), and the Gaussian 82(TM) system (copyright 1983,
 Carnegie Mellon University). Gaussian is a federally registered
 trademark of Gaussian, Inc.
  
 This software contains proprietary and confidential information,
 including trade secrets, belonging to Gaussian, Inc.
  
 This software is provided under written license and may be
 used, copied, transmitted, or stored only in accord with that
 written license.
  
 The following legend is applicable only to US Government
 contracts under FAR:
  
                    RESTRICTED RIGHTS LEGEND
  
 Use, reproduction and disclosure by the US Government is
 subject to restrictions as set forth in subparagraphs (a)
 and (c) of the Commercial Computer Software - Restricted
 Rights clause in FAR 52.227-19.
  
 Gaussian, Inc.
 340 Quinnipiac St., Bldg. 40, Wallingford CT 06492
  
  
 ---------------------------------------------------------------
 Warning -- This program may not be used in any manner that
 competes with the business of Gaussian, Inc. or will provide
 assistance to any competitor of Gaussian, Inc.  The licensee
 of this program is prohibited from giving any competitor of
 Gaussian, Inc. access to this program.  By using this program,
 the user acknowledges that Gaussian, Inc. is engaged in the
 business of creating and licensing software in the field of
 computational chemistry and represents and warrants to the
 licensee that it is not a competitor of Gaussian, Inc. and that
 it will not use this program in any manner prohibited above.
 ---------------------------------------------------------------
  

 Cite this work as:
 Gaussian 16, Revision A.03,
 M. J. Frisch, G. W. Trucks, H. B. Schlegel, G. E. Scuseria, 
 M. A. Robb, J. R. Cheeseman, G. Scalmani, V. Barone, 
 G. A. Petersson, H. Nakatsuji, X. Li, M. Caricato, A. V. Marenich, 
 J. Bloino, B. G. Janesko, R. Gomperts, B. Mennucci, H. P. Hratchian, 
 J. V. Ortiz, A. F. Izmaylov, J. L. Sonnenberg, D. Williams-Young, 
 F. Ding, F. Lipparini, F. Egidi, J. Goings, B. Peng, A. Petrone, 
 T. Henderson, D. Ranasinghe, V. G. Zakrzewski, J. Gao, N. Rega, 
 G. Zheng, W. Liang, M. Hada, M. Ehara, K. Toyota, R. Fukuda, 
 J. Hasegawa, M. Ishida, T. Nakajima, Y. Honda, O. Kitao, H. Nakai, 
 T. Vreven, K. Throssell, J. A. Montgomery, Jr., J. E. Peralta, 
 F. Ogliaro, M. J. Bearpark, J. J. Heyd, E. N. Brothers, K. N. Kudin, 
 V. N. Staroverov, T. A. Keith, R. Kobayashi, J. Normand, 
 K. Raghavachari, A. P. Rendell, J. C. Burant, S. S. Iyengar, 
 J. Tomasi, M. Cossi, J. M. Millam, M. Klene, C. Adamo, R. Cammi, 
 J. W. Ochterski, R. L. Martin, K. Morokuma, O. Farkas, 
 J. B. Foresman, and D. J. Fox, Gaussian, Inc., Wallingford CT, 2016.
 
 ******************************************
 Gaussian 16:  ES64L-G16RevA.03 25-Dec-2016
                28-Jul-2025 
 ******************************************
 %nprocshared=96
 Will use up to   96 processors via shared memory.
 %mem=600GB
 %chk=01_02_path1_7.chk
 -----------------------------------------------------------
 # freq b3lyp/6-311g(d,p) em=gd3bj scrf(solvent=Cis-Decalin)
 -----------------------------------------------------------
 1/10=4,30=1,38=1/1,3;
 2/12=2,17=6,18=5,40=1/2;
 3/5=4,6=6,7=101,11=2,25=1,30=1,70=2201,71=2,72=99,74=-5,124=41,140=1/1,2,3;
 4//1;
 5/5=2,38=5,53=99,98=1/2;
 8/6=4,10=90,11=11/1;
 11/6=1,8=1,9=11,15=111,16=1/1,2,10;
 10/6=1/2;
 6/7=2,8=2,9=2,10=2,28=1/1;
 7/8=1,10=1,25=1/1,2,3,16;
 1/10=4,30=1/3;
 99//99;
 -------------
 01_02_path1_7
 -------------
 Symbolic Z-matrix:
 Charge =  0 Multiplicity = 1
 C                    -1.364    -1.16766   0.65319 
 C                    -0.74311  -0.09056   1.37076 
 C                    -0.87565   1.07093   0.62889 
 C                     0.87562   1.07087  -0.62899 
 C                     0.7431   -0.09069  -1.37074 
 C                    -1.93449  -0.69469  -0.48634 
 C                     1.36402  -1.1677   -0.65307 
 C                     1.93453  -0.69461   0.48639 
 C                     1.88917   0.80916   0.46565 
 C                    -1.88918   0.80908  -0.46573 
 H                    -1.32159  -2.20652   0.95371 
 H                    -0.24505  -0.18609   2.32404 
 H                    -0.69462   2.06353   1.01948 
 H                     0.69457   2.06343  -1.01969 
 H                     0.24503  -0.18633  -2.32401 
 H                    -2.45694  -1.27629  -1.23295 
 H                     1.32163  -2.2066   -0.95349 
 H                     2.45699  -1.27613   1.23305 
 H                     2.86338   1.1898    0.12016 
 H                     1.6841    1.28429   1.4255 
 H                    -2.86341   1.18973  -0.12029 
 H                    -1.68412   1.28413  -1.42563 
 

 GradGradGradGradGradGradGradGradGradGradGradGradGradGradGradGradGradGrad
 Berny optimization.
 Initialization pass.
 Trust Radius=3.00D-01 FncErr=1.00D-07 GrdErr=1.00D-07 EigMax=2.50D+02 EigMin=1.00D-04
 Number of steps in this run=      2 maximum allowed number of steps=      2.
 GradGradGradGradGradGradGradGradGradGradGradGradGradGradGradGradGradGrad

                          Input orientation:                          
 ---------------------------------------------------------------------
 Center     Atomic      Atomic             Coordinates (Angstroms)
 Number     Number       Type             X           Y           Z
 ---------------------------------------------------------------------
      1          6           0       -1.364001   -1.167655    0.653185
      2          6           0       -0.743111   -0.090559    1.370755
      3          6           0       -0.875646    1.070925    0.628885
      4          6           0        0.875619    1.070869   -0.628986
      5          6           0        0.743095   -0.090693   -1.370736
      6          6           0       -1.934493   -0.694688   -0.486336
      7          6           0        1.364022   -1.167705   -0.653068
      8          6           0        1.934526   -0.694611    0.486394
      9          6           0        1.889172    0.809156    0.465645
     10          6           0       -1.889181    0.809082   -0.465731
     11          1           0       -1.321592   -2.206519    0.953714
     12          1           0       -0.245045   -0.186092    2.324040
     13          1           0       -0.694619    2.063530    1.019485
     14          1           0        0.694572    2.063430   -1.019686
     15          1           0        0.245026   -0.186331   -2.324009
     16          1           0       -2.456935   -1.276291   -1.232946
     17          1           0        1.321632   -2.206599   -0.953493
     18          1           0        2.456993   -1.276128    1.233053
     19          1           0        2.863382    1.189795    0.120160
     20          1           0        1.684100    1.284290    1.425500
     21          1           0       -2.863406    1.189725   -0.120289
     22          1           0       -1.684115    1.284132   -1.425628
 ---------------------------------------------------------------------
                    Distance matrix (angstroms):
                    1          2          3          4          5
     1  C    0.000000
     2  C    1.435461   0.000000
     3  C    2.291358   1.384551   0.000000
     4  C    3.416263   2.822794   2.156193   0.000000
     5  C    3.113833   3.118426   2.822793   1.384551   0.000000
     6  C    1.359289   2.287608   2.341424   3.321787   2.883826
     7  C    3.024633   3.113858   3.416282   2.291360   1.435462
     8  C    3.336446   2.883871   3.321820   2.341426   2.287609
     9  C    3.811310   2.925342   2.781976   1.514596   2.344252
    10  C    2.331368   2.344251   1.514595   2.781960   2.925322
    11  H    1.082291   2.232902   3.323555   4.251347   3.760681
    12  H    2.237696   1.079791   2.202567   3.399441   3.825819
    13  H    3.320061   2.183081   1.081944   2.483642   3.524323
    14  H    4.180446   3.524317   2.483634   1.081944   2.183080
    15  H    3.523585   3.825816   3.399438   2.202567   1.079791
    16  H    2.182612   3.335028   3.387671   4.120661   3.415380
    17  H    3.297490   3.760707   4.251366   3.323557   2.232903
    18  H    3.866265   3.415436   4.120699   3.387673   3.335029
    19  H    4.869543   4.026175   3.775349   2.127573   2.891027
    20  H    3.987408   2.790082   2.689316   2.218130   3.254997
    21  H    2.898917   2.891019   2.127573   3.775342   4.026157
    22  H    3.230355   3.255000   2.218131   2.689304   2.790073
                    6          7          8          9         10
     6  C    0.000000
     7  C    3.336427   0.000000
     8  C    3.989425   1.359289   0.000000
     9  C    4.217609   2.331369   1.504594   0.000000
    10  C    1.504594   3.811314   4.217626   3.891454   0.000000
    11  H    2.176011   3.297485   3.620298   4.431875   3.380951
    12  H    3.318300   3.523611   2.895870   2.999839   3.387680
    13  H    3.378247   4.180468   3.847588   2.925093   2.281772
    14  H    3.847552   3.320061   3.378247   2.281771   2.925070
    15  H    2.895820   2.237698   3.318301   3.387681   2.999814
    16  H    1.081034   3.866234   4.751780   5.111061   2.293413
    17  H    3.620285   1.082291   2.176010   3.380951   4.431880
    18  H    4.751791   2.182612   1.081034   2.293413   5.111086
    19  H    5.190252   2.898925   2.132577   1.101513   4.803651
    20  H    4.545953   3.230352   2.204696   1.090472   4.070739
    21  H    2.132576   4.869546   5.190273   4.803660   1.101514
    22  H    2.204697   3.987417   4.545967   4.070737   1.090471
                   11         12         13         14         15
    11  H    0.000000
    12  H    2.668121   0.000000
    13  H    4.316334   2.639087   0.000000
    14  H    5.117782   4.138083   2.467401   0.000000
    15  H    4.156792   4.673813   4.138086   2.639086   0.000000
    16  H    2.633593   4.328180   4.397000   4.596870   3.111113
    17  H    3.259459   4.156819   5.117803   4.316333   2.668122
    18  H    3.901456   3.111180   4.596910   4.397000   4.328180
    19  H    5.453785   4.051231   3.772475   2.601197   3.837118
    20  H    4.630606   2.586696   2.535817   2.750483   4.276971
    21  H    3.881385   3.837112   2.601203   3.772464   4.051205
    22  H    4.239969   4.276972   2.750480   2.535793   2.586684
                   16         17         18         19         20
    16  H    0.000000
    17  H    3.901427   0.000000
    18  H    5.497985   2.633592   0.000000
    19  H    6.018160   3.881394   2.735774   0.000000
    20  H    5.547259   4.239964   2.681444   1.761689   0.000000
    21  H    2.735774   5.453787   6.018190   5.731834   4.803979
    22  H    2.681444   4.630619   5.547278   4.803966   4.412913
                   21         22
    21  H    0.000000
    22  H    1.761689   0.000000
 Stoichiometry    C10H12
 Framework group  C1[X(C10H12)]
 Deg. of freedom    60
 Full point group                 C1      NOp   1
 Largest Abelian subgroup         C1      NOp   1
 Largest concise Abelian subgroup C1      NOp   1
                         Standard orientation:                         
 ---------------------------------------------------------------------
 Center     Atomic      Atomic             Coordinates (Angstroms)
 Number     Number       Type             X           Y           Z
 ---------------------------------------------------------------------
      1          6           0        1.371394    1.179639    0.637488
      2          6           0        0.758757    0.102569    1.362155
      3          6           0        0.882786   -1.058940    0.618854
      4          6           0       -0.882766   -1.058919   -0.618884
      5          6           0       -0.758740    0.102618   -1.362141
      6          6           0        1.928800    0.706633   -0.508475
      7          6           0       -1.371406    1.179656   -0.637446
      8          6           0       -1.928828    0.706601    0.508489
      9          6           0       -1.883719   -0.797167    0.487271
     10          6           0        1.883723   -0.797136   -0.487303
     11          1           0        1.332431    2.218513    0.938449
     12          1           0        0.271638    0.198135    2.321076
     13          1           0        0.706240   -2.051531    1.011533
     14          1           0       -0.706207   -2.051493   -1.011599
     15          1           0       -0.271617    0.198224   -2.321057
     16          1           0        2.442661    1.288210   -1.261037
     17          1           0       -1.332456    2.218540   -0.938370
     18          1           0       -2.442711    1.288144    1.261062
     19          1           0       -2.861822   -1.177814    0.152975
     20          1           0       -1.667672   -1.272270    1.444731
     21          1           0        2.861838   -1.177771   -0.153026
     22          1           0        1.667679   -1.272216   -1.444774
 ---------------------------------------------------------------------
 Rotational constants (GHZ):           2.3729589           1.3007918           1.2421129
 Standard basis: 6-311G(d,p) (5D, 7F)
 There are   262 symmetry adapted cartesian basis functions of A   symmetry.
 There are   252 symmetry adapted basis functions of A   symmetry.
   252 basis functions,   416 primitive gaussians,   262 cartesian basis functions
    36 alpha electrons       36 beta electrons
       nuclear repulsion energy       518.8968183094 Hartrees.
 NAtoms=   22 NActive=   22 NUniq=   22 SFac= 1.00D+00 NAtFMM=   60 NAOKFM=F Big=F
 Integral buffers will be    131072 words long.
 Raffenetti 2 integral format.
 Two-electron integral symmetry is turned on.
 Nuclear repulsion after empirical dispersion term =      518.8504748673 Hartrees.
 Force inversion solution in PCM.
 ------------------------------------------------------------------------------
 Polarizable Continuum Model (PCM)
 =================================
 Model                : PCM.
 Atomic radii         : UFF (Universal Force Field).
 Polarization charges : Total charges.
 Charge compensation  : None.
 Solution method      : Matrix inversion.
 Cavity type          : Scaled VdW (van der Waals Surface) (Alpha=1.100).
 Cavity algorithm     : GePol (No added spheres)
                        Default sphere list used, NSphG=   22.
                        Lebedev-Laikov grids with approx.  5.0 points / Ang**2.
                        Smoothing algorithm: York/Karplus (Gamma=1.0000).
                        Polarization charges: spherical gaussians, with
                                              point-specific exponents (IZeta= 3).
                        Self-potential: point-specific (ISelfS= 7).
                        Self-field    : sphere-specific E.n sum rule (ISelfD= 2).
 1st derivatives      : Analytical E(r).r(x)/FMM algorithm (CHGder, D1EAlg=3).
                        Cavity 1st derivative terms included.
 2nd derivatives      : Analytical E(r).r(xy)/FMM algorithm (CHGder, D2EAlg=3).
                        Cavity 2nd derivative terms included.
 Solvent              : Cis-Decalin, Eps=   2.213900 Eps(inf)=   2.193361
 ------------------------------------------------------------------------------
 One-electron integrals computed using PRISM.
 NBasis=   252 RedAO= T EigKep=  5.42D-04  NBF=   252
 NBsUse=   252 1.00D-06 EigRej= -1.00D+00 NBFU=   252
 ExpMin= 1.03D-01 ExpMax= 4.56D+03 ExpMxC= 6.82D+02 IAcc=3 IRadAn=         5 AccDes= 0.00D+00
 Harris functional with IExCor=  402 and IRadAn=       5 diagonalized for initial guess.
 HarFok:  IExCor=  402 AccDes= 0.00D+00 IRadAn=         5 IDoV= 1 UseB2=F ITyADJ=14
 ICtDFT=  3500011 ScaDFX=  1.000000  1.000000  1.000000  1.000000
 FoFCou: FMM=F IPFlag=           0 FMFlag=      100000 FMFlg1=           0
         NFxFlg=           0 DoJE=T BraDBF=F KetDBF=T FulRan=T
         wScrn=  0.000000 ICntrl=       500 IOpCl=  0 I1Cent=   200000004 NGrid=           0
         NMat0=    1 NMatS0=      1 NMatT0=    0 NMatD0=    1 NMtDS0=    0 NMtDT0=    0
 Petite list used in FoFCou.
 Requested convergence on RMS density matrix=1.00D-08 within 128 cycles.
 Requested convergence on MAX density matrix=1.00D-06.
 Requested convergence on             energy=1.00D-06.
 No special actions if energy rises.
 Inv3:  Mode=1 IEnd=     7188912.
 Iteration    1 A*A^-1 deviation from unit magnitude is 7.77D-15 for    332.
 Iteration    1 A*A^-1 deviation from orthogonality  is 1.99D-15 for   1250    637.
 Iteration    1 A^-1*A deviation from unit magnitude is 7.55D-15 for    332.
 Iteration    1 A^-1*A deviation from orthogonality  is 1.27D-15 for   1341    875.
 Error on total polarization charges =  0.00632
 SCF Done:  E(RB3LYP) =  -388.323089371     A.U. after   12 cycles
            NFock= 12  Conv=0.43D-08     -V/T= 2.0045
 DoSCS=F DFT=T ScalE2(SS,OS)=  1.000000  1.000000
 Range of M.O.s used for correlation:     1   252
 NBasis=   252 NAE=    36 NBE=    36 NFC=     0 NFV=     0
 NROrb=    252 NOA=    36 NOB=    36 NVA=   216 NVB=   216
 Symmetrizing basis deriv contribution to polar:
 IMax=3 JMax=2 DiffMx= 0.00D+00
 G2DrvN: will do    23 centers at a time, making    1 passes.
 Calling FoFCou, ICntrl=  3107 FMM=F I1Cent=   0 AccDes= 0.00D+00.
 NEqPCM:  Using equilibrium solvation (IEInf=0, Eps=   2.2139, EpsInf=   2.1934)
 G2PCM: DoFxE=T DoFxN=T DoGrad=T DoDP/DQ/DG/TGxP=FFFF NFrqRd=   0 IEInf=0 SqF1=F DoCFld=F IF1Alg=4.
 End of G2Drv F.D. properties file   721 does not exist.
 End of G2Drv F.D. properties file   722 does not exist.
 End of G2Drv F.D. properties file   788 does not exist.
          IDoAtm=1111111111111111111111
 NEqPCM:  Using equilibrium solvation (IEInf=0, Eps=   2.2139, EpsInf=   2.1934)
          Differentiating once with respect to electric field.
                with respect to dipole field.
          Differentiating once with respect to nuclear coordinates.
 Keep R1 ints in memory in canonical form, NReq=612588626.
          There are    69 degrees of freedom in the 1st order CPHF.  IDoFFX=6 NUNeed=     3.
     66 vectors produced by pass  0 Test12= 1.13D-14 1.45D-09 XBig12= 2.00D+02 1.18D+01.
 AX will form    66 AO Fock derivatives at one time.
     66 vectors produced by pass  1 Test12= 1.13D-14 1.45D-09 XBig12= 2.66D+01 9.42D-01.
     66 vectors produced by pass  2 Test12= 1.13D-14 1.45D-09 XBig12= 2.72D-01 1.02D-01.
     66 vectors produced by pass  3 Test12= 1.13D-14 1.45D-09 XBig12= 7.92D-04 5.46D-03.
     66 vectors produced by pass  4 Test12= 1.13D-14 1.45D-09 XBig12= 1.52D-06 2.13D-04.
     47 vectors produced by pass  5 Test12= 1.13D-14 1.45D-09 XBig12= 1.64D-09 4.40D-06.
      6 vectors produced by pass  6 Test12= 1.13D-14 1.45D-09 XBig12= 1.58D-12 1.72D-07.
      3 vectors produced by pass  7 Test12= 1.13D-14 1.45D-09 XBig12= 1.55D-15 4.36D-09.
 InvSVY:  IOpt=1 It=  1 EMax= 2.13D-14
 Solved reduced A of dimension   386 with    69 vectors.
 Isotropic polarizability for W=    0.000000      127.89 Bohr**3.
 End of Minotr F.D. properties file   721 does not exist.
 End of Minotr F.D. properties file   722 does not exist.
 End of Minotr F.D. properties file   788 does not exist.

 **********************************************************************

            Population analysis using the SCF density.

 **********************************************************************

 Orbital symmetries:
       Occupied  (A) (A) (A) (A) (A) (A) (A) (A) (A) (A) (A) (A)
                 (A) (A) (A) (A) (A) (A) (A) (A) (A) (A) (A) (A)
                 (A) (A) (A) (A) (A) (A) (A) (A) (A) (A) (A) (A)
       Virtual   (A) (A) (A) (A) (A) (A) (A) (A) (A) (A) (A) (A)
                 (A) (A) (A) (A) (A) (A) (A) (A) (A) (A) (A) (A)
                 (A) (A) (A) (A) (A) (A) (A) (A) (A) (A) (A) (A)
                 (A) (A) (A) (A) (A) (A) (A) (A) (A) (A) (A) (A)
                 (A) (A) (A) (A) (A) (A) (A) (A) (A) (A) (A) (A)
                 (A) (A) (A) (A) (A) (A) (A) (A) (A) (A) (A) (A)
                 (A) (A) (A) (A) (A) (A) (A) (A) (A) (A) (A) (A)
                 (A) (A) (A) (A) (A) (A) (A) (A) (A) (A) (A) (A)
                 (A) (A) (A) (A) (A) (A) (A) (A) (A) (A) (A) (A)
                 (A) (A) (A) (A) (A) (A) (A) (A) (A) (A) (A) (A)
                 (A) (A) (A) (A) (A) (A) (A) (A) (A) (A) (A) (A)
                 (A) (A) (A) (A) (A) (A) (A) (A) (A) (A) (A) (A)
                 (A) (A) (A) (A) (A) (A) (A) (A) (A) (A) (A) (A)
                 (A) (A) (A) (A) (A) (A) (A) (A) (A) (A) (A) (A)
                 (A) (A) (A) (A) (A) (A) (A) (A) (A) (A) (A) (A)
                 (A) (A) (A) (A) (A) (A) (A) (A) (A) (A) (A) (A)
                 (A) (A) (A) (A) (A) (A) (A) (A) (A) (A) (A) (A)
                 (A) (A) (A) (A) (A) (A) (A) (A) (A) (A) (A) (A)
 The electronic state is 1-A.
 Alpha  occ. eigenvalues --  -10.17283 -10.17283 -10.16909 -10.16909 -10.16231
 Alpha  occ. eigenvalues --  -10.16231 -10.16035 -10.16033 -10.15787 -10.15786
 Alpha  occ. eigenvalues --   -0.86585  -0.84162  -0.71398  -0.70593  -0.69204
 Alpha  occ. eigenvalues --   -0.68724  -0.55436  -0.55053  -0.53198  -0.51701
 Alpha  occ. eigenvalues --   -0.51637  -0.50277  -0.44896  -0.42134  -0.39483
 Alpha  occ. eigenvalues --   -0.38393  -0.37448  -0.37099  -0.36186  -0.36166
 Alpha  occ. eigenvalues --   -0.35646  -0.34722  -0.31629  -0.26311  -0.24697
 Alpha  occ. eigenvalues --   -0.19005
 Alpha virt. eigenvalues --   -0.02954   0.01270   0.03699   0.04745   0.07342
 Alpha virt. eigenvalues --    0.07804   0.07878   0.09584   0.09759   0.10616
 Alpha virt. eigenvalues --    0.11110   0.11616   0.12715   0.15132   0.15229
 Alpha virt. eigenvalues --    0.16935   0.18729   0.19774   0.21830   0.23232
 Alpha virt. eigenvalues --    0.27130   0.27518   0.30710   0.31408   0.31875
 Alpha virt. eigenvalues --    0.32539   0.35531   0.38376   0.38461   0.39271
 Alpha virt. eigenvalues --    0.39973   0.40534   0.40940   0.42339   0.43400
 Alpha virt. eigenvalues --    0.44186   0.44778   0.46201   0.46463   0.49177
 Alpha virt. eigenvalues --    0.49915   0.52262   0.54998   0.55654   0.56484
 Alpha virt. eigenvalues --    0.56516   0.58864   0.59196   0.59974   0.59999
 Alpha virt. eigenvalues --    0.60164   0.61875   0.62019   0.63586   0.64073
 Alpha virt. eigenvalues --    0.64492   0.65505   0.66116   0.68831   0.70086
 Alpha virt. eigenvalues --    0.70436   0.71478   0.71912   0.73725   0.76651
 Alpha virt. eigenvalues --    0.79939   0.80304   0.84202   0.85560   0.88120
 Alpha virt. eigenvalues --    0.88123   0.91730   0.93332   0.98465   0.98975
 Alpha virt. eigenvalues --    1.03988   1.04150   1.05415   1.07639   1.13195
 Alpha virt. eigenvalues --    1.14300   1.15457   1.18046   1.21495   1.21987
 Alpha virt. eigenvalues --    1.24636   1.28835   1.33972   1.38862   1.39478
 Alpha virt. eigenvalues --    1.47149   1.47565   1.48364   1.49841   1.51563
 Alpha virt. eigenvalues --    1.52717   1.52934   1.54839   1.56386   1.56820
 Alpha virt. eigenvalues --    1.58532   1.59406   1.60712   1.60930   1.61195
 Alpha virt. eigenvalues --    1.63880   1.64054   1.66347   1.67539   1.70166
 Alpha virt. eigenvalues --    1.70977   1.73045   1.74491   1.77170   1.78048
 Alpha virt. eigenvalues --    1.79109   1.81969   1.82245   1.82547   1.84495
 Alpha virt. eigenvalues --    1.84833   1.86493   1.88600   1.88778   1.89190
 Alpha virt. eigenvalues --    1.91823   1.92195   1.94821   1.97555   1.97775
 Alpha virt. eigenvalues --    1.99036   1.99634   2.03663   2.03711   2.09673
 Alpha virt. eigenvalues --    2.12030   2.13089   2.15692   2.17940   2.19120
 Alpha virt. eigenvalues --    2.23581   2.24203   2.26875   2.32252   2.32831
 Alpha virt. eigenvalues --    2.34359   2.36734   2.36917   2.39252   2.41639
 Alpha virt. eigenvalues --    2.44391   2.45884   2.50036   2.52217   2.53138
 Alpha virt. eigenvalues --    2.53895   2.59111   2.59543   2.60381   2.61386
 Alpha virt. eigenvalues --    2.62719   2.67552   2.69579   2.70476   2.70979
 Alpha virt. eigenvalues --    2.71250   2.74284   2.74357   2.78364   2.78831
 Alpha virt. eigenvalues --    2.81390   2.83831   2.87217   2.92998   2.93029
 Alpha virt. eigenvalues --    2.94148   2.94820   2.97590   2.99761   3.05494
 Alpha virt. eigenvalues --    3.06813   3.10156   3.11561   3.18749   3.19446
 Alpha virt. eigenvalues --    3.23887   3.33805   3.34077   3.42715   3.42725
 Alpha virt. eigenvalues --    3.47454   3.49503   3.55082   3.59496   3.77462
 Alpha virt. eigenvalues --    3.77990   4.02624   4.03944   4.05944   4.08771
 Alpha virt. eigenvalues --    4.09020   4.10942   4.16370   4.18494   4.52340
 Alpha virt. eigenvalues --    4.54761  23.62676  23.74506  23.87822  23.89768
 Alpha virt. eigenvalues --   23.90078  23.96196  24.15257  24.17035  24.21510
 Alpha virt. eigenvalues --   24.21691
          Condensed to atoms (all electrons):
               1          2          3          4          5          6
     1  C    4.874205   0.449252  -0.077428  -0.008286   0.003625   0.575263
     2  C    0.449252   5.000982   0.530808  -0.046305  -0.042362  -0.086961
     3  C   -0.077428   0.530808   5.204449   0.061322  -0.046306  -0.096533
     4  C   -0.008286  -0.046305   0.061322   5.204449   0.530810  -0.012507
     5  C    0.003625  -0.042362  -0.046306   0.530810   5.000986   0.027593
     6  C    0.575263  -0.086961  -0.096533  -0.012507   0.027593   5.074916
     7  C   -0.013644   0.003626  -0.008285  -0.077428   0.449250  -0.009543
     8  C   -0.009542   0.027591  -0.012505  -0.096533  -0.086961  -0.002640
     9  C    0.000590  -0.012293  -0.028959   0.377162  -0.097978   0.000871
    10  C   -0.092158  -0.097978   0.377161  -0.028959  -0.012293   0.375203
    11  H    0.420913  -0.044629   0.006526  -0.000153  -0.000076  -0.044939
    12  H   -0.038107   0.420842  -0.043342  -0.001663   0.000319   0.006144
    13  H    0.007918  -0.036850   0.411285  -0.013568   0.002559   0.005795
    14  H   -0.000062   0.002559  -0.013568   0.411285  -0.036850  -0.000244
    15  H   -0.000282   0.000319  -0.001663  -0.043342   0.420841   0.002649
    16  H   -0.037992   0.008313   0.005247   0.000251  -0.001425   0.417282
    17  H    0.002012  -0.000076  -0.000153   0.006526  -0.044629   0.000808
    18  H    0.000081  -0.001424   0.000251   0.005247   0.008313   0.000024
    19  H   -0.000231   0.002971   0.005414  -0.029410  -0.001374  -0.000201
    20  H    0.000797  -0.003637  -0.003350  -0.041704   0.007518   0.000145
    21  H   -0.002187  -0.001374  -0.029410   0.005414   0.002971  -0.032356
    22  H    0.005341   0.007518  -0.041704  -0.003351  -0.003638  -0.035446
               7          8          9         10         11         12
     1  C   -0.013644  -0.009542   0.000590  -0.092158   0.420913  -0.038107
     2  C    0.003626   0.027591  -0.012293  -0.097978  -0.044629   0.420842
     3  C   -0.008285  -0.012505  -0.028959   0.377161   0.006526  -0.043342
     4  C   -0.077428  -0.096533   0.377162  -0.028959  -0.000153  -0.001663
     5  C    0.449250  -0.086961  -0.097978  -0.012293  -0.000076   0.000319
     6  C   -0.009543  -0.002640   0.000871   0.375203  -0.044939   0.006144
     7  C    4.874203   0.575266  -0.092158   0.000590   0.002013  -0.000282
     8  C    0.575266   5.074910   0.375203   0.000871   0.000808   0.002649
     9  C   -0.092158   0.375203   4.888596   0.002839  -0.000087  -0.000041
    10  C    0.000590   0.000871   0.002839   4.888599   0.008904   0.007535
    11  H    0.002013   0.000808  -0.000087   0.008904   0.572997  -0.002592
    12  H   -0.000282   0.002649  -0.000041   0.007535  -0.002592   0.556012
    13  H   -0.000062  -0.000244  -0.002528  -0.032345  -0.000292  -0.004337
    14  H    0.007918   0.005795  -0.032345  -0.002528   0.000026  -0.000040
    15  H   -0.038106   0.006144   0.007535  -0.000041  -0.000042   0.000001
    16  H    0.000081   0.000024  -0.000004  -0.038518  -0.005152  -0.000321
    17  H    0.420913  -0.044939   0.008904  -0.000087   0.000139  -0.000042
    18  H   -0.037992   0.417282  -0.038518  -0.000004   0.000018   0.000250
    19  H   -0.002187  -0.032356   0.383600  -0.000209   0.000002   0.000092
    20  H    0.005341  -0.035446   0.407919   0.000473  -0.000014   0.000037
    21  H   -0.000231  -0.000201  -0.000209   0.383600  -0.000493  -0.000427
    22  H    0.000797   0.000145   0.000473   0.407920  -0.000270  -0.000271
              13         14         15         16         17         18
     1  C    0.007918  -0.000062  -0.000282  -0.037992   0.002012   0.000081
     2  C   -0.036850   0.002559   0.000319   0.008313  -0.000076  -0.001424
     3  C    0.411285  -0.013568  -0.001663   0.005247  -0.000153   0.000251
     4  C   -0.013568   0.411285  -0.043342   0.000251   0.006526   0.005247
     5  C    0.002559  -0.036850   0.420841  -0.001425  -0.044629   0.008313
     6  C    0.005795  -0.000244   0.002649   0.417282   0.000808   0.000024
     7  C   -0.000062   0.007918  -0.038106   0.000081   0.420913  -0.037992
     8  C   -0.000244   0.005795   0.006144   0.000024  -0.044939   0.417282
     9  C   -0.002528  -0.032345   0.007535  -0.000004   0.008904  -0.038518
    10  C   -0.032345  -0.002528  -0.000041  -0.038518  -0.000087  -0.000004
    11  H   -0.000292   0.000026  -0.000042  -0.005152   0.000139   0.000018
    12  H   -0.004337  -0.000040   0.000001  -0.000321  -0.000042   0.000250
    13  H    0.546358  -0.002445  -0.000040  -0.000289   0.000026   0.000018
    14  H   -0.002445   0.546357  -0.004337   0.000018  -0.000292  -0.000289
    15  H   -0.000040  -0.004337   0.556011   0.000250  -0.002592  -0.000321
    16  H   -0.000289   0.000018   0.000250   0.559906   0.000019  -0.000000
    17  H    0.000026  -0.000292  -0.002592   0.000019   0.572997  -0.005152
    18  H    0.000018  -0.000289  -0.000321  -0.000000  -0.005152   0.559906
    19  H   -0.000268  -0.001072  -0.000427   0.000001  -0.000493   0.000316
    20  H    0.001777  -0.000867  -0.000271  -0.000005  -0.000270  -0.001817
    21  H   -0.001072  -0.000268   0.000092   0.000316   0.000002   0.000001
    22  H   -0.000867   0.001777   0.000037  -0.001817  -0.000014  -0.000005
              19         20         21         22
     1  C   -0.000231   0.000797  -0.002187   0.005341
     2  C    0.002971  -0.003637  -0.001374   0.007518
     3  C    0.005414  -0.003350  -0.029410  -0.041704
     4  C   -0.029410  -0.041704   0.005414  -0.003351
     5  C   -0.001374   0.007518   0.002971  -0.003638
     6  C   -0.000201   0.000145  -0.032356  -0.035446
     7  C   -0.002187   0.005341  -0.000231   0.000797
     8  C   -0.032356  -0.035446  -0.000201   0.000145
     9  C    0.383600   0.407919  -0.000209   0.000473
    10  C   -0.000209   0.000473   0.383600   0.407920
    11  H    0.000002  -0.000014  -0.000493  -0.000270
    12  H    0.000092   0.000037  -0.000427  -0.000271
    13  H   -0.000268   0.001777  -0.001072  -0.000867
    14  H   -0.001072  -0.000867  -0.000268   0.001777
    15  H   -0.000427  -0.000271   0.000092   0.000037
    16  H    0.000001  -0.000005   0.000316  -0.001817
    17  H   -0.000493  -0.000270   0.000002  -0.000014
    18  H    0.000316  -0.001817   0.000001  -0.000005
    19  H    0.572414  -0.031758   0.000005  -0.000056
    20  H   -0.031758   0.573568  -0.000056  -0.000016
    21  H    0.000005  -0.000056   0.572414  -0.031758
    22  H   -0.000056  -0.000016  -0.031758   0.573568
 Mulliken charges:
               1
     1  C   -0.060081
     2  C   -0.080891
     3  C   -0.199256
     4  C   -0.199256
     5  C   -0.080894
     6  C   -0.165324
     7  C   -0.060081
     8  C   -0.165323
     9  C   -0.148574
    10  C   -0.148574
    11  H    0.086393
    12  H    0.097584
    13  H    0.119472
    14  H    0.119473
    15  H    0.097586
    16  H    0.093815
    17  H    0.086393
    18  H    0.093815
    19  H    0.135225
    20  H    0.121636
    21  H    0.135225
    22  H    0.121637
 Sum of Mulliken charges =  -0.00000
 Mulliken charges with hydrogens summed into heavy atoms:
               1
     1  C    0.026313
     2  C    0.016693
     3  C   -0.079784
     4  C   -0.079783
     5  C    0.016691
     6  C   -0.071509
     7  C    0.026312
     8  C   -0.071508
     9  C    0.108287
    10  C    0.108287
 APT charges:
               1
     1  C   -0.012451
     2  C   -0.131833
     3  C    0.065163
     4  C    0.065155
     5  C   -0.131827
     6  C   -0.050815
     7  C   -0.012449
     8  C   -0.050820
     9  C    0.005428
    10  C    0.005427
    11  H    0.041504
    12  H    0.048453
    13  H    0.016490
    14  H    0.016490
    15  H    0.048452
    16  H    0.026929
    17  H    0.041503
    18  H    0.026930
    19  H   -0.018206
    20  H    0.009342
    21  H   -0.018207
    22  H    0.009342
 Sum of APT charges =   0.00000
 APT charges with hydrogens summed into heavy atoms:
               1
     1  C    0.029053
     2  C   -0.083380
     3  C    0.081653
     4  C    0.081646
     5  C   -0.083375
     6  C   -0.023886
     7  C    0.029054
     8  C   -0.023890
     9  C   -0.003437
    10  C   -0.003439
 Electronic spatial extent (au):  <R**2>=           1189.9892
 Charge=             -0.0000 electrons
 Dipole moment (field-independent basis, Debye):
    X=              0.0000    Y=             -0.6151    Z=             -0.0000  Tot=              0.6151
 Quadrupole moment (field-independent basis, Debye-Ang):
   XX=            -62.9859   YY=            -56.7890   ZZ=            -59.6886
   XY=              0.0000   XZ=             -4.3133   YZ=              0.0000
 Traceless Quadrupole moment (field-independent basis, Debye-Ang):
   XX=             -3.1647   YY=              3.0322   ZZ=              0.1326
   XY=              0.0000   XZ=             -4.3133   YZ=              0.0000
 Octapole moment (field-independent basis, Debye-Ang**2):
  XXX=             -0.0002  YYY=              1.3586  ZZZ=              0.0001  XYY=             -0.0000
  XXY=             -3.1781  XXZ=             -0.0000  XZZ=              0.0000  YZZ=              1.5038
  YYZ=             -0.0001  XYZ=             -0.6573
 Hexadecapole moment (field-independent basis, Debye-Ang**3):
 XXXX=           -916.2891 YYYY=           -389.4144 ZZZZ=           -351.1333 XXXY=              0.0001
 XXXZ=            -28.0638 YYYX=             -0.0001 YYYZ=              0.0001 ZZZX=            -19.0626
 ZZZY=             -0.0000 XXYY=           -213.9952 XXZZ=           -216.8893 YYZZ=           -123.8637
 XXYZ=              0.0003 YYXZ=             -2.1994 ZZXY=              0.0003
 N-N= 5.188504748673D+02 E-N=-1.938422783863D+03  KE= 3.865713593168D+02
  Exact polarizability: 147.558   0.000 119.944  -7.626  -0.000 116.171
 Approx polarizability: 208.124   0.001 179.119 -10.855  -0.001 189.260
 D2PCM: PCM CHGder 2nd derivatives, FixD1E=F FixD2E=F DoIter=F DoCFld=F I1PDM=0
 Calling FoFJK, ICntrl=    100127 FMM=F ISym2X=0 I1Cent= 0 IOpClX= 0 NMat=1 NMatS=1 NMatT=0.
 Full mass-weighted force constant matrix:
 Low frequencies --- -199.9504  -45.1232  -44.2703  -15.1427   -0.0007   -0.0005
 Low frequencies ---   -0.0003  120.8306  138.4207
 ******    1 imaginary frequencies (negative Signs) ****** 
 Diagonal vibrational polarizability:
        8.1326132       2.2414235       5.5330809
 Harmonic frequencies (cm**-1), IR intensities (KM/Mole), Raman scattering
 activities (A**4/AMU), depolarization ratios for plane and unpolarized
 incident light, reduced masses (AMU), force constants (mDyne/A),
 and normal coordinates:
                      1                      2                      3
                      A                      A                      A
 Frequencies --   -199.9484               120.5949               138.3555
 Red. masses --      8.6665                 3.2969                 4.2127
 Frc consts  --      0.2041                 0.0282                 0.0475
 IR Inten    --      0.0449                 0.0720                 0.4489
  Atom  AN      X      Y      Z        X      Y      Z        X      Y      Z
     1   6    -0.07  -0.03   0.04     0.06   0.03  -0.13     0.05   0.06   0.02
     2   6    -0.16   0.05  -0.06    -0.02   0.14  -0.04    -0.17   0.09  -0.09
     3   6    -0.43   0.01  -0.30    -0.07   0.06   0.07    -0.12   0.09  -0.08
     4   6     0.43   0.01   0.30     0.07   0.06  -0.07    -0.12  -0.09  -0.08
     5   6     0.16   0.05   0.06     0.02   0.14   0.04    -0.17  -0.09  -0.09
     6   6    -0.16  -0.01  -0.06     0.08  -0.12  -0.07     0.21   0.04   0.12
     7   6     0.07  -0.03  -0.04    -0.06   0.03   0.13     0.05  -0.06   0.02
     8   6     0.16  -0.01   0.06    -0.08  -0.12   0.07     0.21  -0.04   0.12
     9   6     0.09  -0.01   0.05     0.01  -0.11  -0.09     0.02  -0.04   0.03
    10   6    -0.09  -0.01  -0.05    -0.01  -0.11   0.09     0.02   0.04   0.03
    11   1     0.03  -0.04   0.08     0.12   0.07  -0.25     0.11   0.06   0.04
    12   1    -0.01  -0.02   0.02    -0.03   0.27  -0.06    -0.20   0.10  -0.11
    13   1    -0.07   0.03  -0.06    -0.14   0.11   0.17    -0.16   0.10  -0.08
    14   1     0.07   0.03   0.06     0.14   0.11  -0.17    -0.16  -0.10  -0.08
    15   1     0.01  -0.02  -0.02     0.03   0.27   0.06    -0.20  -0.10  -0.11
    16   1    -0.15   0.01  -0.03     0.14  -0.23  -0.11     0.38   0.01   0.21
    17   1    -0.03  -0.04  -0.08    -0.12   0.07   0.25     0.11  -0.06   0.04
    18   1     0.15   0.01   0.03    -0.14  -0.23   0.11     0.38  -0.01   0.21
    19   1     0.17   0.03  -0.22     0.04  -0.13  -0.17    -0.07   0.12   0.09
    20   1    -0.14  -0.04   0.09    -0.00  -0.19  -0.13     0.04  -0.14  -0.02
    21   1    -0.17   0.03   0.22    -0.04  -0.13   0.17    -0.07  -0.12   0.09
    22   1     0.14  -0.04  -0.09     0.00  -0.19   0.13     0.04   0.14  -0.02
                      4                      5                      6
                      A                      A                      A
 Frequencies --    185.7373               245.9299               289.2824
 Red. masses --      3.9389                 3.4251                 3.6735
 Frc consts  --      0.0801                 0.1221                 0.1811
 IR Inten    --      0.5074                 0.1125                 0.1387
  Atom  AN      X      Y      Z        X      Y      Z        X      Y      Z
     1   6     0.22  -0.03   0.10     0.16   0.06   0.06    -0.10   0.00  -0.11
     2   6     0.07  -0.00  -0.01     0.10   0.08   0.06    -0.08  -0.02  -0.14
     3   6    -0.06   0.03  -0.11    -0.06   0.09   0.01     0.05  -0.03  -0.13
     4   6     0.06   0.03   0.11    -0.06  -0.09   0.01    -0.05  -0.03   0.13
     5   6    -0.07  -0.00   0.01     0.10  -0.08   0.06     0.08  -0.02   0.14
     6   6     0.21  -0.00   0.08    -0.04   0.06  -0.04     0.13   0.02  -0.01
     7   6    -0.22  -0.03  -0.10     0.16  -0.06   0.06     0.10   0.00   0.11
     8   6    -0.21  -0.00  -0.08    -0.04  -0.06  -0.04    -0.13   0.02   0.01
     9   6    -0.02   0.01   0.05    -0.16  -0.06  -0.09    -0.19   0.02   0.01
    10   6     0.02   0.01  -0.05    -0.16   0.06  -0.09     0.19   0.02  -0.01
    11   1     0.36  -0.05   0.19     0.35   0.04   0.14    -0.25   0.01  -0.16
    12   1     0.07  -0.03  -0.01     0.20   0.08   0.11    -0.20  -0.03  -0.21
    13   1    -0.05   0.02  -0.12    -0.05   0.10   0.03     0.12  -0.03  -0.11
    14   1     0.05   0.02   0.12    -0.05  -0.10   0.03    -0.12  -0.03   0.11
    15   1    -0.07  -0.03   0.01     0.20  -0.08   0.11     0.20  -0.03   0.21
    16   1     0.32  -0.00   0.15    -0.06   0.04  -0.06     0.20   0.05   0.06
    17   1    -0.36  -0.05  -0.19     0.35  -0.04   0.14     0.25   0.01   0.16
    18   1    -0.32  -0.00  -0.15    -0.06  -0.04  -0.06    -0.20   0.05  -0.06
    19   1     0.05  -0.15   0.04    -0.15   0.01  -0.21    -0.14   0.03  -0.12
    20   1     0.00   0.12   0.11    -0.29  -0.10  -0.08    -0.31   0.02   0.05
    21   1    -0.05  -0.15  -0.04    -0.15  -0.01  -0.21     0.14   0.03   0.12
    22   1    -0.00   0.12  -0.11    -0.29   0.10  -0.08     0.31   0.02  -0.05
                      7                      8                      9
                      A                      A                      A
 Frequencies --    416.3239               444.4434               556.9123
 Red. masses --      1.9217                 1.7622                 2.6061
 Frc consts  --      0.1962                 0.2051                 0.4762
 IR Inten    --      0.0191                 0.7171                 1.0791
  Atom  AN      X      Y      Z        X      Y      Z        X      Y      Z
     1   6    -0.06   0.01  -0.02     0.07  -0.01   0.04    -0.12   0.03  -0.06
     2   6    -0.10   0.01  -0.04     0.01  -0.00  -0.01     0.16  -0.02   0.09
     3   6     0.01   0.01   0.03    -0.08   0.01  -0.07    -0.08   0.02  -0.04
     4   6    -0.01   0.01  -0.03    -0.08  -0.01  -0.07     0.08   0.02   0.04
     5   6     0.10   0.01   0.04     0.01   0.00  -0.01    -0.16  -0.02  -0.09
     6   6     0.06  -0.01   0.05    -0.08   0.01  -0.06     0.09  -0.01   0.07
     7   6     0.06   0.01   0.02     0.07   0.01   0.04     0.12   0.03   0.06
     8   6    -0.06  -0.01  -0.05    -0.08  -0.01  -0.06    -0.09  -0.01  -0.07
     9   6     0.11  -0.01   0.08     0.05  -0.01   0.06     0.01  -0.01  -0.02
    10   6    -0.11  -0.01  -0.08     0.05   0.01   0.06    -0.01  -0.01   0.02
    11   1    -0.09   0.01  -0.04     0.17  -0.03   0.11    -0.36   0.07  -0.20
    12   1    -0.20   0.04  -0.09    -0.01   0.00  -0.03     0.36  -0.06   0.20
    13   1    -0.06   0.00  -0.02    -0.13   0.01  -0.10     0.01   0.01   0.01
    14   1     0.06   0.00   0.02    -0.13  -0.01  -0.10    -0.01   0.01  -0.01
    15   1     0.20   0.04   0.09    -0.01  -0.00  -0.03    -0.36  -0.06  -0.20
    16   1     0.13  -0.02   0.10    -0.08   0.01  -0.06    -0.05  -0.01  -0.02
    17   1     0.09   0.01   0.04     0.17   0.03   0.11     0.36   0.07   0.20
    18   1    -0.13  -0.02  -0.10    -0.08  -0.01  -0.06     0.05  -0.01   0.02
    19   1     0.11  -0.23   0.35     0.03  -0.24   0.39     0.09  -0.21  -0.02
    20   1     0.38   0.17   0.10     0.36   0.18   0.09     0.04   0.14   0.05
    21   1    -0.11  -0.23  -0.35     0.03   0.24   0.39    -0.09  -0.21   0.02
    22   1    -0.38   0.17  -0.10     0.36  -0.18   0.09    -0.04   0.14  -0.05
                     10                     11                     12
                      A                      A                      A
 Frequencies --    579.6409               705.0894               705.6788
 Red. masses --      2.4962                 1.2012                 1.2678
 Frc consts  --      0.4941                 0.3518                 0.3720
 IR Inten    --      5.1715                89.6744                 0.9938
  Atom  AN      X      Y      Z        X      Y      Z        X      Y      Z
     1   6    -0.09   0.04  -0.06    -0.05  -0.01  -0.04    -0.05  -0.01  -0.05
     2   6     0.15  -0.02   0.07     0.01  -0.01   0.00     0.02  -0.02   0.00
     3   6    -0.12   0.03  -0.07     0.02  -0.01   0.02    -0.00  -0.01   0.02
     4   6    -0.12  -0.03  -0.07     0.02   0.01   0.02     0.00  -0.01  -0.02
     5   6     0.15   0.02   0.07     0.01   0.01   0.00    -0.02  -0.02  -0.00
     6   6     0.07   0.00   0.04    -0.01   0.01  -0.03    -0.01   0.02  -0.03
     7   6    -0.09  -0.04  -0.06    -0.05   0.01  -0.04     0.05  -0.01   0.05
     8   6     0.07  -0.00   0.04    -0.01  -0.01  -0.03     0.01   0.02   0.03
     9   6    -0.01  -0.00   0.02    -0.04  -0.02  -0.00     0.06   0.03  -0.00
    10   6    -0.01   0.00   0.02    -0.04   0.02  -0.00    -0.06   0.03   0.00
    11   1    -0.29   0.06  -0.17     0.21  -0.05   0.13     0.18  -0.05   0.12
    12   1     0.41  -0.08   0.21     0.16  -0.02   0.08     0.15  -0.02   0.07
    13   1    -0.09   0.02  -0.07     0.04  -0.02  -0.00    -0.01  -0.03  -0.03
    14   1    -0.09  -0.02  -0.07     0.04   0.02  -0.00     0.01  -0.03   0.03
    15   1     0.41   0.08   0.21     0.16   0.02   0.08    -0.15  -0.02  -0.07
    16   1    -0.04   0.00  -0.04     0.52  -0.04   0.29     0.52  -0.04   0.28
    17   1    -0.29  -0.06  -0.17     0.21   0.05   0.13    -0.18  -0.05  -0.12
    18   1    -0.04  -0.00  -0.04     0.52   0.04   0.29    -0.52  -0.04  -0.28
    19   1    -0.11   0.11   0.18    -0.01  -0.14   0.07     0.04   0.16  -0.12
    20   1     0.11  -0.07  -0.04     0.05   0.10   0.03    -0.07  -0.10  -0.04
    21   1    -0.11  -0.11   0.18    -0.01   0.14   0.07    -0.04   0.16   0.12
    22   1     0.11   0.07  -0.04     0.05  -0.10   0.03     0.07  -0.10   0.04
                     13                     14                     15
                      A                      A                      A
 Frequencies --    771.4299               777.0109               802.9634
 Red. masses --      1.3142                 1.2696                 3.4127
 Frc consts  --      0.4608                 0.4516                 1.2964
 IR Inten    --      0.5274                88.2221                 0.0620
  Atom  AN      X      Y      Z        X      Y      Z        X      Y      Z
     1   6     0.01  -0.03  -0.02     0.01   0.00   0.01     0.06   0.02  -0.04
     2   6     0.06  -0.05   0.05    -0.09   0.01  -0.06     0.00  -0.06  -0.13
     3   6    -0.02   0.02   0.00     0.01  -0.01  -0.00    -0.04  -0.14   0.05
     4   6     0.02   0.02  -0.00     0.01   0.01  -0.00     0.04  -0.14  -0.05
     5   6    -0.06  -0.05  -0.05    -0.09  -0.01  -0.06    -0.00  -0.06   0.13
     6   6     0.01   0.02  -0.03     0.01  -0.01   0.02     0.10   0.08  -0.01
     7   6    -0.01  -0.03   0.02     0.01  -0.00   0.01    -0.06   0.02   0.04
     8   6    -0.01   0.02   0.03     0.01   0.01   0.02    -0.10   0.08   0.01
     9   6     0.02   0.03  -0.01    -0.01   0.00  -0.01     0.15   0.10  -0.10
    10   6    -0.02   0.03   0.01    -0.01  -0.00  -0.01    -0.15   0.10   0.10
    11   1    -0.12  -0.03  -0.06     0.11  -0.01   0.05    -0.14  -0.02   0.08
    12   1    -0.43   0.11  -0.21     0.46  -0.17   0.24     0.08   0.03  -0.09
    13   1    -0.37  -0.02  -0.28     0.28   0.01   0.19     0.15  -0.15   0.11
    14   1     0.37  -0.02   0.28     0.28  -0.01   0.19    -0.15  -0.15  -0.11
    15   1     0.43   0.11   0.21     0.46   0.17   0.24    -0.08   0.03   0.09
    16   1     0.02   0.03  -0.02    -0.18  -0.00  -0.10    -0.23  -0.05  -0.34
    17   1     0.12  -0.03   0.06     0.11   0.01   0.05     0.14  -0.02  -0.08
    18   1    -0.02   0.03   0.02    -0.18   0.00  -0.10     0.23  -0.05   0.34
    19   1     0.02   0.04  -0.04    -0.03  -0.02   0.08     0.19   0.10  -0.24
    20   1    -0.00  -0.04  -0.04     0.08   0.02  -0.02    -0.04   0.10  -0.07
    21   1    -0.02   0.04   0.04    -0.03   0.02   0.08    -0.19   0.10   0.24
    22   1     0.00  -0.04   0.04     0.08  -0.02  -0.02     0.04   0.10   0.07
                     16                     17                     18
                      A                      A                      A
 Frequencies --    819.3143               827.6652               836.8846
 Red. masses --      4.2670                 5.2082                 4.2146
 Frc consts  --      1.6876                 2.1021                 1.7392
 IR Inten    --      1.6605                15.7156                 1.6997
  Atom  AN      X      Y      Z        X      Y      Z        X      Y      Z
     1   6    -0.07   0.01   0.05     0.02  -0.25  -0.07    -0.01   0.22   0.06
     2   6    -0.04   0.08   0.11    -0.13  -0.01   0.20     0.15   0.00  -0.14
     3   6     0.03   0.18  -0.09    -0.03   0.10   0.06     0.02  -0.08  -0.06
     4   6     0.03  -0.18  -0.09    -0.03  -0.10   0.06    -0.02  -0.08   0.06
     5   6    -0.04  -0.08   0.11    -0.13   0.01   0.20    -0.15   0.00   0.14
     6   6    -0.11  -0.12   0.05     0.12   0.02  -0.13    -0.12  -0.01   0.10
     7   6    -0.07  -0.01   0.05     0.02   0.25  -0.07     0.01   0.22  -0.06
     8   6    -0.11   0.12   0.05     0.12  -0.02  -0.13     0.12  -0.01  -0.10
     9   6     0.14   0.12  -0.13     0.04  -0.13  -0.05     0.02  -0.12  -0.04
    10   6     0.14  -0.12  -0.13     0.04   0.13  -0.05    -0.02  -0.12   0.04
    11   1     0.22   0.06  -0.09    -0.03  -0.22  -0.18    -0.01   0.20   0.13
    12   1     0.06  -0.14   0.18     0.00   0.16   0.25    -0.22  -0.07  -0.32
    13   1    -0.12   0.22  -0.06     0.08  -0.03  -0.19    -0.18   0.01   0.09
    14   1    -0.12  -0.22  -0.06     0.08   0.03  -0.19     0.18   0.01  -0.09
    15   1     0.06   0.14   0.18     0.00  -0.16   0.25     0.22  -0.07   0.32
    16   1     0.07   0.03   0.28    -0.13   0.25  -0.12     0.17  -0.21   0.13
    17   1     0.22  -0.06  -0.09    -0.03   0.22  -0.18     0.01   0.20  -0.13
    18   1     0.07  -0.03   0.28    -0.13  -0.25  -0.12    -0.17  -0.21  -0.13
    19   1     0.14   0.13  -0.13    -0.02  -0.04   0.04    -0.05  -0.03   0.07
    20   1     0.07   0.11  -0.12    -0.00   0.02   0.04     0.01   0.01   0.03
    21   1     0.14  -0.13  -0.13    -0.02   0.04   0.04     0.05  -0.03  -0.07
    22   1     0.07  -0.11  -0.12    -0.00  -0.02   0.04    -0.01   0.01  -0.03
                     19                     20                     21
                      A                      A                      A
 Frequencies --    893.1982               908.0499               917.3946
 Red. masses --      1.8895                 1.6283                 1.2878
 Frc consts  --      0.8882                 0.7910                 0.6386
 IR Inten    --     14.3043                11.1399                 0.9997
  Atom  AN      X      Y      Z        X      Y      Z        X      Y      Z
     1   6    -0.01   0.03   0.01    -0.01  -0.01   0.02     0.01   0.01  -0.01
     2   6    -0.03  -0.01  -0.01     0.03   0.01   0.02    -0.05  -0.03  -0.05
     3   6     0.10   0.08  -0.04     0.05   0.04  -0.03     0.00   0.01   0.01
     4   6    -0.10   0.08   0.04     0.05  -0.04  -0.03    -0.00   0.01  -0.01
     5   6     0.03  -0.01   0.01     0.03  -0.01   0.02     0.05  -0.03   0.05
     6   6     0.02  -0.06   0.06     0.02  -0.07   0.04    -0.00   0.05  -0.02
     7   6     0.01   0.03  -0.01    -0.01   0.01   0.02    -0.01   0.01   0.01
     8   6    -0.02  -0.06  -0.06     0.02   0.07   0.04     0.00   0.05   0.02
     9   6     0.10  -0.01   0.04    -0.10  -0.03  -0.05    -0.03  -0.03  -0.04
    10   6    -0.10  -0.01  -0.04    -0.10   0.03  -0.05     0.03  -0.03   0.04
    11   1     0.02   0.06  -0.10    -0.06   0.03  -0.12    -0.03  -0.00   0.06
    12   1     0.04  -0.26   0.05    -0.28   0.01  -0.14     0.33  -0.17   0.16
    13   1    -0.09   0.04  -0.26     0.38   0.00   0.04    -0.48   0.02  -0.21
    14   1     0.09   0.04   0.26     0.38  -0.00   0.04     0.48   0.02   0.21
    15   1    -0.04  -0.26  -0.05    -0.28  -0.01  -0.14    -0.33  -0.17  -0.16
    16   1    -0.16  -0.10  -0.09    -0.02  -0.11  -0.01    -0.02   0.04  -0.04
    17   1    -0.02   0.06   0.10    -0.06  -0.03  -0.12     0.03  -0.00  -0.06
    18   1     0.16  -0.10   0.09    -0.02   0.11  -0.01     0.02   0.04   0.04
    19   1     0.17   0.11  -0.34    -0.17  -0.14   0.29    -0.05  -0.10   0.09
    20   1    -0.21  -0.22   0.00     0.23   0.10  -0.05     0.13   0.02  -0.05
    21   1    -0.17   0.11   0.34    -0.17   0.14   0.29     0.05  -0.10  -0.09
    22   1     0.21  -0.22  -0.00     0.23  -0.10  -0.05    -0.13   0.02   0.05
                     22                     23                     24
                      A                      A                      A
 Frequencies --    945.5023               947.7846               954.0240
 Red. masses --      1.7645                 1.5001                 1.3367
 Frc consts  --      0.9294                 0.7939                 0.7168
 IR Inten    --      8.7463                 1.5130                 6.0003
  Atom  AN      X      Y      Z        X      Y      Z        X      Y      Z
     1   6    -0.05  -0.02   0.01     0.09  -0.01   0.03    -0.08   0.02  -0.05
     2   6     0.04   0.02  -0.01    -0.02  -0.00  -0.00     0.02  -0.01   0.02
     3   6    -0.05  -0.02   0.05     0.02   0.00  -0.03     0.01   0.00  -0.01
     4   6    -0.05   0.02   0.05    -0.02   0.00   0.03     0.01  -0.00  -0.01
     5   6     0.04  -0.02  -0.01     0.02  -0.00   0.00     0.02   0.01   0.02
     6   6     0.04   0.08  -0.00    -0.06  -0.05  -0.02     0.03  -0.03   0.02
     7   6    -0.05   0.02   0.01    -0.09  -0.01  -0.03    -0.08  -0.02  -0.05
     8   6     0.04  -0.08  -0.00     0.06  -0.05   0.02     0.03   0.03   0.02
     9   6     0.02   0.08  -0.09     0.01   0.06  -0.05     0.01  -0.03   0.03
    10   6     0.02  -0.08  -0.09    -0.01   0.06   0.05     0.01   0.03   0.03
    11   1     0.05  -0.09   0.25    -0.40   0.08  -0.34     0.53  -0.05   0.26
    12   1    -0.11   0.17  -0.10     0.07  -0.05   0.05    -0.11   0.02  -0.05
    13   1     0.06   0.07   0.36     0.12  -0.05  -0.12     0.01  -0.03  -0.08
    14   1     0.06  -0.07   0.36    -0.12  -0.05   0.12     0.02   0.03  -0.08
    15   1    -0.11  -0.17  -0.10    -0.07  -0.05  -0.05    -0.11  -0.02  -0.05
    16   1    -0.12   0.33   0.07     0.27  -0.20   0.09    -0.22  -0.09  -0.19
    17   1     0.05   0.09   0.25     0.40   0.08   0.34     0.53   0.05   0.26
    18   1    -0.12  -0.33   0.07    -0.27  -0.20  -0.09    -0.22   0.09  -0.19
    19   1    -0.04   0.07   0.10    -0.02   0.04   0.07     0.00   0.04  -0.03
    20   1     0.14   0.19  -0.07     0.09   0.14  -0.03    -0.05  -0.11   0.00
    21   1    -0.04  -0.07   0.10     0.02   0.04  -0.07     0.00  -0.04  -0.03
    22   1     0.14  -0.19  -0.07    -0.09   0.14   0.03    -0.05   0.11   0.00
                     25                     26                     27
                      A                      A                      A
 Frequencies --    957.4559               981.8257               982.0880
 Red. masses --      1.6158                 1.5829                 1.7307
 Frc consts  --      0.8727                 0.8990                 0.9835
 IR Inten    --      0.0417                 3.6831                22.1154
  Atom  AN      X      Y      Z        X      Y      Z        X      Y      Z
     1   6    -0.04   0.02  -0.05     0.01   0.01  -0.02    -0.01   0.01   0.01
     2   6     0.00  -0.02   0.02    -0.01   0.01  -0.00    -0.01  -0.02  -0.00
     3   6     0.01   0.02  -0.05    -0.04  -0.06   0.06     0.08   0.07  -0.05
     4   6    -0.01   0.02   0.05     0.04  -0.06  -0.06     0.08  -0.07  -0.05
     5   6    -0.00  -0.02  -0.02     0.01   0.01   0.00    -0.01   0.02  -0.00
     6   6    -0.01  -0.07   0.01    -0.01  -0.07   0.05     0.03   0.07  -0.04
     7   6     0.04   0.02   0.05    -0.01   0.01   0.02    -0.01  -0.01   0.01
     8   6     0.01  -0.07  -0.01     0.01  -0.07  -0.05     0.03  -0.07  -0.04
     9   6    -0.02   0.07  -0.09    -0.02   0.06   0.08    -0.05   0.07   0.06
    10   6     0.02   0.07   0.09     0.02   0.06  -0.08    -0.05  -0.07   0.06
    11   1     0.44  -0.02   0.12     0.09   0.05  -0.14    -0.05  -0.02   0.14
    12   1    -0.06  -0.06  -0.01     0.09   0.09   0.05    -0.02  -0.21   0.01
    13   1     0.09  -0.05  -0.20    -0.32  -0.02   0.03     0.02   0.02  -0.23
    14   1    -0.09  -0.05   0.20     0.32  -0.02  -0.03     0.02  -0.02  -0.23
    15   1     0.06  -0.06   0.01    -0.09   0.09  -0.05    -0.02   0.21   0.01
    16   1    -0.08  -0.25  -0.17    -0.04  -0.14  -0.02    -0.05   0.14  -0.05
    17   1    -0.44  -0.02  -0.12    -0.09   0.05   0.14    -0.05   0.02   0.14
    18   1     0.08  -0.25   0.17     0.04  -0.14   0.02    -0.05  -0.14  -0.05
    19   1    -0.04  -0.06   0.12    -0.11   0.29   0.07    -0.14   0.23   0.13
    20   1     0.17   0.24  -0.05    -0.28   0.25   0.23    -0.23   0.35   0.24
    21   1     0.04  -0.06  -0.12     0.11   0.29  -0.07    -0.14  -0.23   0.13
    22   1    -0.17   0.24   0.05     0.28   0.25  -0.23    -0.23  -0.35   0.24
                     28                     29                     30
                      A                      A                      A
 Frequencies --    992.1452              1067.9032              1068.4676
 Red. masses --      1.4881                 1.6551                 1.6977
 Frc consts  --      0.8631                 1.1121                 1.1419
 IR Inten    --     14.2463                 0.1506                 4.9520
  Atom  AN      X      Y      Z        X      Y      Z        X      Y      Z
     1   6     0.00  -0.04   0.01    -0.04  -0.09   0.03    -0.04  -0.09   0.03
     2   6     0.03  -0.01  -0.01     0.04   0.06  -0.08     0.03   0.07  -0.08
     3   6    -0.05   0.04  -0.06     0.04   0.04  -0.02     0.05   0.04  -0.01
     4   6    -0.05  -0.04  -0.06    -0.04   0.04   0.02     0.05  -0.04  -0.01
     5   6     0.03   0.01  -0.01    -0.04   0.06   0.08     0.03  -0.07  -0.08
     6   6    -0.05  -0.01  -0.04    -0.02  -0.05   0.03    -0.01  -0.05   0.03
     7   6     0.00   0.04   0.01     0.04  -0.09  -0.03    -0.04   0.09   0.03
     8   6    -0.05   0.01  -0.04     0.02  -0.05  -0.03    -0.01   0.05   0.03
     9   6     0.04  -0.02   0.07     0.01   0.02  -0.01    -0.02  -0.02   0.01
    10   6     0.04   0.02   0.07    -0.01   0.02   0.01    -0.02   0.02   0.01
    11   1    -0.04  -0.06   0.07    -0.23  -0.20   0.36    -0.24  -0.20   0.33
    12   1    -0.08   0.00  -0.07     0.18   0.43  -0.05     0.22   0.40  -0.03
    13   1     0.46   0.07   0.27    -0.08   0.04  -0.10    -0.15   0.05  -0.13
    14   1     0.46  -0.07   0.27     0.08   0.04   0.10    -0.15  -0.05  -0.13
    15   1    -0.08  -0.00  -0.07    -0.18   0.43   0.05     0.22  -0.40  -0.02
    16   1     0.14  -0.03   0.07    -0.04  -0.09  -0.01    -0.05  -0.08  -0.01
    17   1    -0.04   0.06   0.07     0.23  -0.20  -0.36    -0.24   0.19   0.33
    18   1     0.14   0.03   0.07     0.04  -0.09   0.01    -0.05   0.08  -0.01
    19   1    -0.04   0.27  -0.06     0.02   0.01  -0.03    -0.01  -0.02   0.01
    20   1    -0.17  -0.19   0.03    -0.00   0.06   0.01    -0.03  -0.04   0.01
    21   1    -0.04  -0.27  -0.06    -0.02   0.01   0.03    -0.01   0.02   0.01
    22   1    -0.17   0.19   0.03     0.00   0.06  -0.01    -0.03   0.04   0.01
                     31                     32                     33
                      A                      A                      A
 Frequencies --   1099.3330              1099.7367              1117.4481
 Red. masses --      1.2315                 1.1579                 1.3472
 Frc consts  --      0.8769                 0.8251                 0.9911
 IR Inten    --      0.1122                 0.2111                 1.1445
  Atom  AN      X      Y      Z        X      Y      Z        X      Y      Z
     1   6     0.01   0.04  -0.00     0.01   0.02  -0.01     0.01  -0.06  -0.03
     2   6    -0.02   0.03   0.02    -0.01   0.03   0.01     0.03  -0.00  -0.06
     3   6     0.01  -0.07  -0.01     0.00  -0.06  -0.01     0.01   0.02   0.01
     4   6    -0.01  -0.07   0.01     0.00   0.06  -0.01    -0.01   0.02  -0.01
     5   6     0.02   0.03  -0.02    -0.01  -0.03   0.01    -0.03  -0.00   0.06
     6   6    -0.01   0.01   0.02    -0.04   0.00   0.02    -0.05  -0.02   0.03
     7   6    -0.01   0.04   0.00     0.01  -0.02  -0.01    -0.01  -0.06   0.03
     8   6     0.01   0.01  -0.02    -0.04  -0.00   0.02     0.05  -0.02  -0.03
     9   6     0.00  -0.03   0.00     0.01   0.01   0.00     0.01   0.03  -0.03
    10   6    -0.00  -0.03  -0.00     0.01  -0.01   0.00    -0.01   0.03   0.03
    11   1     0.10   0.08  -0.13     0.12   0.07  -0.16     0.18   0.01  -0.27
    12   1     0.10   0.35   0.06     0.08   0.33   0.02     0.01  -0.05  -0.08
    13   1     0.11  -0.26  -0.43     0.20  -0.21  -0.31    -0.07   0.07   0.10
    14   1    -0.11  -0.26   0.43     0.20   0.21  -0.31     0.07   0.07  -0.10
    15   1    -0.10   0.35  -0.06     0.08  -0.33   0.02    -0.01  -0.05   0.08
    16   1    -0.07   0.16   0.09    -0.06   0.22   0.18    -0.11   0.36   0.29
    17   1    -0.10   0.08   0.13     0.12  -0.06  -0.16    -0.18   0.01   0.27
    18   1     0.07   0.16  -0.09    -0.06  -0.22   0.18     0.11   0.36  -0.29
    19   1     0.03  -0.06  -0.04    -0.11   0.22   0.10     0.15  -0.21  -0.15
    20   1     0.02  -0.10  -0.03     0.00  -0.02  -0.02    -0.01   0.18   0.04
    21   1    -0.03  -0.06   0.04    -0.11  -0.22   0.10    -0.15  -0.21   0.15
    22   1    -0.02  -0.10   0.03     0.00   0.02  -0.02     0.01   0.18  -0.04
                     34                     35                     36
                      A                      A                      A
 Frequencies --   1123.9778              1131.9270              1146.2100
 Red. masses --      1.4079                 1.1896                 1.1781
 Frc consts  --      1.0480                 0.8980                 0.9119
 IR Inten    --      2.5942                 5.5656                 4.8535
  Atom  AN      X      Y      Z        X      Y      Z        X      Y      Z
     1   6     0.00  -0.06  -0.03    -0.01  -0.03  -0.01    -0.00   0.02   0.01
     2   6     0.04  -0.01  -0.06     0.02   0.00  -0.03    -0.00   0.00   0.03
     3   6     0.01   0.02  -0.01    -0.02   0.01  -0.03    -0.05  -0.01  -0.04
     4   6     0.01  -0.02  -0.01     0.02   0.01   0.03    -0.05   0.01  -0.04
     5   6     0.04   0.01  -0.06    -0.02   0.00   0.03    -0.00  -0.00   0.03
     6   6    -0.01  -0.02   0.05     0.03  -0.02   0.05     0.03   0.00   0.02
     7   6     0.00   0.06  -0.03     0.01  -0.03   0.01    -0.00  -0.02   0.01
     8   6    -0.01   0.02   0.05    -0.03  -0.02  -0.05     0.03  -0.00   0.02
     9   6    -0.03  -0.03   0.04     0.02   0.00  -0.03     0.00   0.03   0.01
    10   6    -0.03   0.03   0.04    -0.02   0.00   0.03     0.00  -0.03   0.01
    11   1     0.17   0.01  -0.30     0.05   0.01  -0.14    -0.05   0.01   0.03
    12   1     0.01  -0.11  -0.07     0.04  -0.01  -0.02     0.02   0.20   0.02
    13   1    -0.11   0.11   0.13    -0.00   0.04   0.04     0.26  -0.08  -0.07
    14   1    -0.11  -0.11   0.13     0.00   0.04  -0.04     0.26   0.08  -0.07
    15   1     0.01   0.11  -0.07    -0.04  -0.01   0.02     0.02  -0.20   0.02
    16   1    -0.16   0.36   0.25    -0.12   0.15   0.08    -0.02  -0.05  -0.05
    17   1     0.17  -0.01  -0.30    -0.05   0.01   0.14    -0.05  -0.01   0.03
    18   1    -0.16  -0.36   0.25     0.12   0.15  -0.08    -0.02   0.05  -0.05
    19   1     0.06  -0.18  -0.07    -0.23   0.42   0.25     0.24  -0.35  -0.27
    20   1    -0.13   0.06   0.12     0.18  -0.24  -0.19    -0.14   0.27   0.15
    21   1     0.06   0.18  -0.07     0.23   0.42  -0.25     0.24   0.35  -0.27
    22   1    -0.13  -0.06   0.12    -0.18  -0.24   0.19    -0.14  -0.27   0.15
                     37                     38                     39
                      A                      A                      A
 Frequencies --   1276.8607              1281.0938              1309.8860
 Red. masses --      1.6463                 1.6439                 1.6302
 Frc consts  --      1.5814                 1.5896                 1.6480
 IR Inten    --      4.0328                 2.4967                 1.5191
  Atom  AN      X      Y      Z        X      Y      Z        X      Y      Z
     1   6    -0.02   0.02   0.03     0.01  -0.02  -0.03    -0.02  -0.04   0.03
     2   6     0.01  -0.03  -0.02    -0.01   0.03   0.03    -0.02  -0.04   0.03
     3   6    -0.02  -0.03   0.01     0.02   0.02  -0.02     0.06  -0.01  -0.08
     4   6    -0.02   0.03   0.01    -0.02   0.02   0.02    -0.06  -0.01   0.08
     5   6     0.01   0.03  -0.02     0.01   0.03  -0.03     0.02  -0.04  -0.03
     6   6    -0.01  -0.03   0.02     0.01   0.03  -0.03    -0.00   0.09   0.01
     7   6    -0.02  -0.02   0.03    -0.01  -0.02   0.03     0.02  -0.04  -0.03
     8   6    -0.01   0.03   0.02    -0.01   0.03   0.03     0.00   0.09  -0.01
     9   6     0.07  -0.12  -0.07     0.06  -0.12  -0.07     0.03  -0.04  -0.03
    10   6     0.07   0.12  -0.07    -0.06  -0.12   0.07    -0.03  -0.04   0.03
    11   1     0.05   0.06  -0.09    -0.05  -0.06   0.09     0.19   0.07  -0.32
    12   1     0.05   0.10  -0.02    -0.05  -0.10   0.02     0.06   0.36   0.04
    13   1    -0.10   0.03   0.13     0.11  -0.03  -0.13    -0.15   0.16   0.25
    14   1    -0.10  -0.03   0.13    -0.11  -0.03   0.13     0.15   0.16  -0.25
    15   1     0.05  -0.10  -0.02     0.05  -0.10  -0.02    -0.06   0.36  -0.04
    16   1     0.03  -0.18  -0.06    -0.03   0.18   0.06     0.07  -0.21  -0.17
    17   1     0.05  -0.06  -0.09     0.05  -0.06  -0.09    -0.19   0.07   0.32
    18   1     0.03   0.18  -0.06     0.03   0.18  -0.06    -0.07  -0.21   0.17
    19   1    -0.13   0.22   0.12    -0.13   0.22   0.12     0.01  -0.00  -0.02
    20   1    -0.24   0.42   0.26    -0.25   0.41   0.26    -0.04   0.06   0.04
    21   1    -0.13  -0.22   0.12     0.13   0.22  -0.12    -0.01  -0.00   0.02
    22   1    -0.24  -0.42   0.26     0.25   0.41  -0.26     0.04   0.06  -0.04
                     40                     41                     42
                      A                      A                      A
 Frequencies --   1310.2096              1405.0739              1420.3334
 Red. masses --      1.6246                 3.0200                 2.1389
 Frc consts  --      1.6432                 3.5128                 2.5423
 IR Inten    --      2.1121                17.1388                 9.5702
  Atom  AN      X      Y      Z        X      Y      Z        X      Y      Z
     1   6    -0.02  -0.04   0.03    -0.08  -0.08   0.10    -0.06  -0.10   0.08
     2   6    -0.02  -0.04   0.03     0.05   0.21   0.00     0.05   0.11  -0.06
     3   6     0.06  -0.01  -0.08     0.03  -0.12  -0.02    -0.05   0.00   0.06
     4   6     0.06   0.01  -0.08    -0.03  -0.12   0.02    -0.05  -0.00   0.06
     5   6    -0.02   0.04   0.03    -0.05   0.21  -0.00     0.05  -0.11  -0.06
     6   6    -0.01   0.09   0.01     0.04   0.02  -0.05     0.01   0.08   0.01
     7   6    -0.02   0.04   0.03     0.08  -0.08  -0.10    -0.06   0.10   0.08
     8   6    -0.01  -0.09   0.01    -0.04   0.02   0.05     0.01  -0.08   0.01
     9   6    -0.03   0.04   0.03     0.02   0.04  -0.03     0.01   0.02  -0.01
    10   6    -0.03  -0.04   0.03    -0.02   0.04   0.03     0.01  -0.02  -0.01
    11   1     0.18   0.07  -0.32     0.11   0.00  -0.18     0.18   0.01  -0.30
    12   1     0.06   0.37   0.03    -0.09  -0.43  -0.01    -0.01  -0.29  -0.07
    13   1    -0.14   0.16   0.25    -0.16  -0.11  -0.06     0.13  -0.16  -0.25
    14   1    -0.14  -0.16   0.25     0.16  -0.11   0.06     0.13   0.16  -0.25
    15   1     0.06  -0.37   0.03     0.09  -0.43   0.01    -0.01   0.29  -0.07
    16   1     0.07  -0.21  -0.16     0.05  -0.06  -0.11     0.08  -0.25  -0.20
    17   1     0.18  -0.07  -0.31    -0.11   0.00   0.18     0.18  -0.01  -0.30
    18   1     0.07   0.21  -0.16    -0.05  -0.06   0.11     0.08   0.25  -0.20
    19   1    -0.02   0.01   0.02     0.02  -0.18   0.18     0.04   0.05  -0.10
    20   1     0.04  -0.06  -0.04    -0.17  -0.12  -0.05     0.07   0.04  -0.02
    21   1    -0.02  -0.01   0.02    -0.02  -0.18  -0.18     0.04  -0.05  -0.10
    22   1     0.04   0.06  -0.04     0.17  -0.12   0.05     0.07  -0.04  -0.02
                     43                     44                     45
                      A                      A                      A
 Frequencies --   1431.7273              1447.8912              1456.9080
 Red. masses --      2.3270                 1.3429                 1.1605
 Frc consts  --      2.8104                 1.6587                 1.4514
 IR Inten    --      0.0142                11.2880                 4.5295
  Atom  AN      X      Y      Z        X      Y      Z        X      Y      Z
     1   6    -0.03  -0.08   0.03    -0.01   0.01   0.02     0.01   0.01  -0.01
     2   6     0.04  -0.01  -0.09    -0.00   0.05   0.02    -0.00  -0.04  -0.01
     3   6    -0.07   0.09   0.11     0.01  -0.04  -0.04    -0.02   0.04   0.01
     4   6     0.07   0.09  -0.11     0.01   0.04  -0.04     0.02   0.04  -0.01
     5   6    -0.04  -0.01   0.09    -0.00  -0.05   0.02     0.00  -0.04   0.01
     6   6    -0.03   0.10   0.06     0.01  -0.03  -0.03    -0.01   0.00   0.01
     7   6     0.03  -0.08  -0.03    -0.01  -0.01   0.02    -0.01   0.01   0.01
     8   6     0.03   0.10  -0.06     0.01   0.03  -0.03     0.01   0.00  -0.01
     9   6    -0.03  -0.06   0.03    -0.04  -0.05   0.04     0.03   0.03  -0.03
    10   6     0.03  -0.06  -0.03    -0.04   0.05   0.04    -0.03   0.03   0.03
    11   1     0.15  -0.00  -0.26    -0.01   0.01   0.03     0.01   0.00  -0.00
    12   1     0.03  -0.12  -0.11    -0.02  -0.03   0.03     0.04   0.08  -0.01
    13   1     0.26  -0.13  -0.31    -0.07   0.02   0.09     0.06   0.02  -0.02
    14   1    -0.26  -0.13   0.31    -0.07  -0.02   0.09    -0.06   0.02   0.02
    15   1    -0.03  -0.12   0.11    -0.02   0.03   0.03    -0.04   0.08   0.01
    16   1     0.08  -0.30  -0.17    -0.02   0.08   0.03    -0.01  -0.01   0.01
    17   1    -0.15  -0.00   0.26    -0.01  -0.01   0.03    -0.01   0.00   0.00
    18   1    -0.08  -0.30   0.17    -0.02  -0.08   0.03     0.01  -0.01  -0.01
    19   1    -0.04   0.06  -0.05     0.01   0.27  -0.40    -0.02  -0.25   0.41
    20   1     0.05   0.04   0.06     0.42   0.22   0.05    -0.45  -0.22  -0.02
    21   1     0.04   0.06   0.05     0.01  -0.27  -0.40     0.02  -0.25  -0.41
    22   1    -0.05   0.04  -0.06     0.42  -0.22   0.05     0.45  -0.22   0.02
                     46                     47                     48
                      A                      A                      A
 Frequencies --   1474.3091              1568.8984              1578.5964
 Red. masses --      2.8967                 4.4336                 4.6517
 Frc consts  --      3.7096                 6.4297                 6.8297
 IR Inten    --      3.3664                 4.8340                 0.6410
  Atom  AN      X      Y      Z        X      Y      Z        X      Y      Z
     1   6     0.05   0.00  -0.08    -0.11   0.08   0.21    -0.12   0.07   0.24
     2   6    -0.00  -0.16  -0.06     0.01  -0.13  -0.08     0.02  -0.10  -0.07
     3   6    -0.03   0.15   0.10    -0.02   0.09   0.07    -0.02   0.06   0.05
     4   6    -0.03  -0.15   0.10    -0.02  -0.09   0.07     0.02   0.06  -0.05
     5   6    -0.00   0.16  -0.06     0.01   0.13  -0.08    -0.02  -0.10   0.07
     6   6    -0.06   0.05   0.09     0.10  -0.11  -0.18     0.10  -0.12  -0.20
     7   6     0.05  -0.00  -0.08    -0.11  -0.08   0.21     0.12   0.07  -0.24
     8   6    -0.06  -0.05   0.09     0.10   0.11  -0.18    -0.10  -0.12   0.20
     9   6    -0.01   0.00  -0.00    -0.01   0.01   0.02     0.01  -0.01  -0.02
    10   6    -0.01  -0.00  -0.00    -0.01  -0.01   0.02    -0.01  -0.01   0.02
    11   1     0.01  -0.03  -0.01     0.15   0.25  -0.20     0.15   0.25  -0.21
    12   1     0.06   0.16  -0.08     0.13   0.27  -0.07     0.10   0.24  -0.08
    13   1     0.13   0.03  -0.18     0.03   0.03  -0.10     0.04   0.02  -0.07
    14   1     0.13  -0.03  -0.18     0.03  -0.03  -0.10    -0.04   0.02   0.07
    15   1     0.06  -0.16  -0.08     0.13  -0.27  -0.07    -0.10   0.24   0.08
    16   1    -0.00  -0.15  -0.01     0.01   0.26  -0.00     0.02   0.27  -0.01
    17   1     0.01   0.03  -0.01     0.15  -0.25  -0.20    -0.15   0.25   0.21
    18   1    -0.00   0.15  -0.01     0.01  -0.26  -0.00    -0.02   0.27   0.01
    19   1     0.02   0.20  -0.28     0.04  -0.09  -0.03    -0.04   0.10   0.01
    20   1     0.39   0.17  -0.03     0.04  -0.17  -0.08    -0.01   0.17   0.07
    21   1     0.02  -0.20  -0.28     0.04   0.09  -0.03     0.04   0.10  -0.01
    22   1     0.39  -0.17  -0.03     0.04   0.17  -0.08     0.01   0.17  -0.07
                     49                     50                     51
                      A                      A                      A
 Frequencies --   2978.4669              2978.5424              3091.3898
 Red. masses --      1.0725                 1.0727                 1.0872
 Frc consts  --      5.6056                 5.6073                 6.1214
 IR Inten    --     79.7951                11.2552                15.7769
  Atom  AN      X      Y      Z        X      Y      Z        X      Y      Z
     1   6     0.00   0.00  -0.00    -0.00  -0.00   0.00     0.00  -0.00   0.00
     2   6    -0.00  -0.00   0.00     0.00   0.00  -0.00    -0.00   0.00   0.00
     3   6    -0.00  -0.00  -0.00     0.00   0.00   0.00     0.00  -0.00   0.00
     4   6    -0.00   0.00  -0.00    -0.00   0.00  -0.00    -0.00  -0.00  -0.00
     5   6    -0.00   0.00   0.00    -0.00   0.00   0.00     0.00   0.00  -0.00
     6   6    -0.00   0.00  -0.00     0.00  -0.00   0.00     0.00   0.00  -0.00
     7   6     0.00  -0.00  -0.00     0.00  -0.00  -0.00    -0.00  -0.00  -0.00
     8   6    -0.00  -0.00  -0.00    -0.00  -0.00  -0.00    -0.00   0.00   0.00
     9   6    -0.05  -0.02  -0.01    -0.05  -0.02  -0.01    -0.02   0.02  -0.05
    10   6    -0.05   0.02  -0.01     0.05  -0.02   0.01     0.02   0.02   0.05
    11   1    -0.00  -0.00  -0.00     0.00   0.00   0.00    -0.00   0.00  -0.00
    12   1     0.00   0.00  -0.00    -0.00  -0.00   0.00     0.00  -0.00  -0.01
    13   1     0.00   0.02  -0.00    -0.00  -0.02   0.00     0.00   0.03  -0.01
    14   1     0.00  -0.01  -0.00     0.00  -0.02  -0.00    -0.00   0.03   0.01
    15   1     0.00  -0.00  -0.00     0.00  -0.00  -0.00    -0.00  -0.00   0.01
    16   1    -0.00  -0.00   0.01     0.00   0.00  -0.01    -0.01  -0.01   0.02
    17   1    -0.00   0.00  -0.00    -0.00   0.00  -0.00     0.00   0.00   0.00
    18   1    -0.00   0.00   0.01    -0.00   0.00   0.01     0.01  -0.01  -0.02
    19   1     0.58   0.22   0.20     0.66   0.25   0.23     0.06   0.03   0.01
    20   1    -0.03   0.03  -0.08    -0.03   0.03  -0.08     0.15  -0.30   0.61
    21   1     0.66  -0.25   0.23    -0.58   0.22  -0.20    -0.06   0.03  -0.01
    22   1    -0.04  -0.03  -0.09     0.03   0.03   0.07    -0.15  -0.30  -0.61
                     52                     53                     54
                      A                      A                      A
 Frequencies --   3093.1167              3182.3799              3187.4992
 Red. masses --      1.0879                 1.0903                 1.0888
 Frc consts  --      6.1327                 6.5057                 6.5178
 IR Inten    --     35.3844                 2.3443                 5.7078
  Atom  AN      X      Y      Z        X      Y      Z        X      Y      Z
     1   6    -0.00  -0.00  -0.00    -0.00   0.01   0.00    -0.00   0.02   0.01
     2   6    -0.00  -0.00   0.00     0.01   0.00  -0.01     0.01  -0.00  -0.01
     3   6    -0.00   0.00  -0.00    -0.01  -0.05   0.02    -0.01  -0.05   0.02
     4   6    -0.00  -0.00  -0.00    -0.01   0.05   0.02     0.01  -0.05  -0.02
     5   6    -0.00   0.00   0.00     0.01  -0.00  -0.01    -0.01  -0.00   0.01
     6   6    -0.00  -0.00   0.00    -0.00  -0.00   0.00    -0.00  -0.01   0.01
     7   6    -0.00   0.00  -0.00    -0.00  -0.01   0.00     0.00   0.02  -0.01
     8   6    -0.00   0.00   0.00    -0.00   0.00   0.00     0.00  -0.01  -0.01
     9   6    -0.02   0.02  -0.05     0.00   0.00  -0.00    -0.00  -0.00   0.00
    10   6    -0.02  -0.02  -0.05     0.00  -0.00  -0.00     0.00  -0.00  -0.00
    11   1    -0.00   0.00   0.00     0.00  -0.13  -0.04     0.01  -0.24  -0.07
    12   1     0.00  -0.00  -0.00    -0.09   0.01   0.17    -0.10   0.02   0.19
    13   1     0.00  -0.01   0.00     0.12   0.61  -0.23     0.11   0.56  -0.22
    14   1     0.00   0.01   0.00     0.12  -0.61  -0.23    -0.11   0.56   0.22
    15   1     0.00   0.00  -0.00    -0.09  -0.01   0.17     0.10   0.02  -0.19
    16   1     0.01   0.01  -0.02     0.04   0.04  -0.06     0.06   0.07  -0.09
    17   1    -0.00  -0.00   0.00     0.00   0.13  -0.04    -0.01  -0.24   0.07
    18   1     0.01  -0.01  -0.02     0.04  -0.04  -0.06    -0.06   0.07   0.09
    19   1     0.07   0.03   0.01    -0.01  -0.00  -0.00     0.01   0.00   0.00
    20   1     0.15  -0.30   0.61     0.00  -0.00   0.01    -0.00   0.01  -0.02
    21   1     0.07  -0.03   0.01    -0.01   0.00  -0.00    -0.01   0.00  -0.00
    22   1     0.15   0.30   0.61     0.00   0.00   0.01     0.00   0.01   0.02
                     55                     56                     57
                      A                      A                      A
 Frequencies --   3189.6552              3191.3816              3214.9841
 Red. masses --      1.0891                 1.0894                 1.0977
 Frc consts  --      6.5285                 6.5370                 6.6848
 IR Inten    --      5.5526                27.8666                21.5865
  Atom  AN      X      Y      Z        X      Y      Z        X      Y      Z
     1   6     0.00  -0.05  -0.02     0.00  -0.05  -0.01    -0.00   0.02   0.01
     2   6    -0.00   0.00   0.01    -0.00   0.00   0.00     0.01  -0.00  -0.02
     3   6    -0.00  -0.02   0.01    -0.00  -0.02   0.01     0.00   0.00  -0.00
     4   6    -0.00   0.02   0.01     0.00  -0.02  -0.01     0.00  -0.00  -0.00
     5   6    -0.00  -0.00   0.01     0.00   0.00  -0.00     0.01   0.00  -0.02
     6   6     0.01   0.01  -0.02     0.01   0.01  -0.02     0.03   0.03  -0.04
     7   6     0.00   0.05  -0.02    -0.00  -0.05   0.01    -0.00  -0.02   0.01
     8   6     0.01  -0.01  -0.02    -0.01   0.01   0.02     0.03  -0.03  -0.04
     9   6     0.00   0.00  -0.00    -0.00  -0.00   0.00    -0.00   0.00  -0.00
    10   6     0.00  -0.00  -0.00     0.00  -0.00  -0.00    -0.00  -0.00  -0.00
    11   1    -0.02   0.59   0.17    -0.02   0.54   0.16     0.01  -0.24  -0.07
    12   1     0.04  -0.01  -0.07     0.02  -0.01  -0.03    -0.12   0.03   0.24
    13   1     0.03   0.17  -0.07     0.05   0.28  -0.11    -0.01  -0.05   0.02
    14   1     0.03  -0.17  -0.06    -0.05   0.28   0.11    -0.01   0.04   0.01
    15   1     0.04   0.01  -0.07    -0.02  -0.01   0.03    -0.11  -0.02   0.22
    16   1    -0.14  -0.16   0.20    -0.14  -0.16   0.20    -0.30  -0.34   0.45
    17   1    -0.02  -0.58   0.17     0.02   0.54  -0.16     0.01   0.21  -0.07
    18   1    -0.14   0.16   0.20     0.14  -0.16  -0.20    -0.27   0.31   0.41
    19   1    -0.00  -0.00  -0.00     0.00   0.00   0.00    -0.00  -0.00  -0.00
    20   1     0.00  -0.00   0.01    -0.00   0.01  -0.02     0.00  -0.01   0.02
    21   1    -0.00   0.00  -0.00    -0.00   0.00  -0.00    -0.00   0.00  -0.00
    22   1     0.00   0.00   0.01     0.00   0.01   0.02     0.01   0.01   0.02
                     58                     59                     60
                      A                      A                      A
 Frequencies --   3215.0174              3227.7666              3228.0355
 Red. masses --      1.0980                 1.1011                 1.1012
[...]
 .00071344,0.00032455,0.00078586,-0.00727372,0.05139578,-0.00153008,0.0
 0550503,-0.00412251,-0.12905789,0.02474091,-0.27719566,-0.00696103,-0.
 00366907,-0.00610438,0.00014935,-0.00014683,-0.00025939,-0.00050594,0.
 00048459,-0.00021788,-0.00199976,-0.00047716,-0.00084230,-0.00002363,-
 0.00014167,0.00065708,0.00100687,-0.00064862,-0.00080451,-0.00046456,-
 0.00034676,-0.00031167,-0.00198292,0.00129923,0.00075492,0.00054641,-0
 .00046552,-0.00022947,0.14005485,-0.02743972,0.28897452,0.00559071,0.0
 0064118,0.00026099,0.00197720,-0.00311929,0.00249120,-0.04209044,-0.03
 808554,-0.03365233,-0.00691761,0.00767469,0.00928937,-0.00121120,-0.00
 400611,-0.00093884,-0.00250858,0.00202335,-0.00414561,-0.00087697,0.00
 104760,-0.00156750,-0.00053651,0.00114432,0.00131736,0.00137430,0.0005
 7388,0.00079056,-0.00174253,-0.01740655,-0.00239052,0.00044872,-0.0001
 1734,0.00007353,-0.00261518,0.00019949,0.00183549,0.04636364,0.0003697
 6,-0.00381342,0.00234008,-0.00506121,-0.01353302,-0.01361449,-0.046081
 35,-0.29565675,-0.09105501,-0.00022595,-0.00035416,-0.00000043,-0.0000
 2355,0.00018158,-0.00008455,0.00073828,-0.00022456,0.00082118,-0.00004
 626,0.00043347,-0.00002099,-0.00019563,-0.00008921,0.00034149,-0.00003
 037,-0.00011105,-0.00021742,0.00197835,0.00218704,0.00212377,-0.000985
 02,-0.00054751,-0.00048323,0.00016183,0.00066619,0.00040538,0.05028870
 ,0.30972831,-0.00357006,0.00284349,-0.00264453,0.00459924,0.02011068,0
 .01005932,-0.03391590,-0.09961764,-0.07976409,0.00410319,-0.00510977,-
 0.00550251,0.00057298,0.00197483,0.00057289,-0.00312024,-0.00141643,-0
 .00273713,0.00025767,-0.00033051,0.00038573,0.00024243,0.00010443,-0.0
 0062199,-0.00098153,-0.00018770,0.00006953,0.00362345,-0.01702636,-0.0
 0335521,0.00049100,0.00067412,0.00065821,0.00170387,-0.00138785,-0.000
 64631,0.02772463,0.09951095,0.08153703,-0.00087705,-0.00104787,-0.0015
 6755,-0.00121114,0.00400607,-0.00093927,-0.00691773,-0.00767385,0.0092
 9029,-0.04209202,0.03808753,-0.03365840,0.00197723,0.00311963,0.002490
 78,-0.00053658,-0.00114431,0.00131762,0.00559060,-0.00064097,0.0002609
 2,-0.00250863,-0.00202368,-0.00414536,-0.00174283,0.01740636,-0.002392
 31,0.00137428,-0.00057382,0.00079065,0.00015147,-0.00003459,-0.0001531
 1,0.00013877,-0.00000188,-0.00001442,0.00074815,-0.00022879,-0.0001151
 2,0.04636598,0.00004627,0.00043349,0.00002097,0.00002358,0.00018144,0.
 00008457,0.00022627,-0.00035376,0.00000009,0.04608317,-0.29563731,0.09
 107697,0.00506211,-0.01353362,0.01361685,0.00019566,-0.00008926,-0.000
 34153,-0.00037001,-0.00381395,-0.00233996,-0.00073866,-0.00022453,-0.0
 0082150,-0.00197807,0.00218884,-0.00212436,0.00003032,-0.00011104,0.00
 021746,-0.00005721,0.00005005,0.00002775,0.00004079,0.00000439,-0.0000
 6054,0.00022880,0.00066510,0.00001483,-0.05029149,0.30970769,0.0002577
 1,0.00033056,0.00038576,0.00057296,-0.00197489,0.00057313,0.00410338,0
 .00510942,-0.00550328,-0.03392298,0.09963976,-0.07978296,0.00459910,-0
 .02010830,0.01005984,0.00024246,-0.00010446,-0.00062203,-0.00357006,-0
 .00284344,-0.00264391,-0.00312015,0.00141604,-0.00273711,0.00362331,0.
 01702573,-0.00335676,-0.00098161,0.00018773,0.00006950,-0.00009499,-0.
 00002967,0.00004923,-0.00013561,0.00001200,0.00009974,-0.00011516,-0.0
 0001497,-0.00037466,0.02773198,-0.09953411,0.08155700,-0.00069915,-0.0
 0071160,-0.00196875,0.00108855,0.00189981,0.00056474,-0.00093892,-0.00
 082128,0.00164704,0.00270762,0.00121423,-0.00115481,-0.09468828,-0.006
 17233,-0.13040856,-0.00246674,-0.00067145,0.00306581,-0.00419404,-0.00
 418108,-0.00875980,0.00100470,0.00256601,-0.00112843,0.00435735,0.0000
 5569,-0.00333944,0.00008230,-0.00033603,0.00008875,-0.00002806,0.00000
 676,-0.00004589,-0.00018165,0.00005686,0.00002675,0.00013878,-0.000040
 80,-0.00013561,-0.00261514,-0.00016171,0.00170390,0.09705719,0.0001437
 7,-0.00006524,-0.00018762,0.00036509,-0.00019629,0.00029531,-0.0001797
 6,-0.00015990,-0.00022882,-0.01350120,0.00508874,-0.02086398,-0.004966
 68,-0.05861048,-0.02569926,-0.00040608,-0.00001479,0.00040071,0.007826
 35,0.00839945,0.01949325,0.00239862,-0.00398849,0.00272025,0.00159201,
 -0.00383772,-0.00340724,0.00031333,0.00005211,-0.00034299,0.00003150,0
 .00000553,0.00000959,-0.00005686,-0.00003502,0.00000469,0.00000190,0.0
 0000440,-0.00001200,-0.00019936,0.00066629,0.00138776,0.00728872,0.051
 40155,-0.00002363,0.00014176,0.00065719,-0.00050597,-0.00048468,-0.000
 21791,0.00014945,0.00014688,-0.00025946,-0.00695980,0.00366788,-0.0061
 0245,-0.12905821,-0.02476542,-0.27718919,0.00100707,0.00064863,-0.0008
 0478,-0.00153056,-0.00550626,-0.00412367,-0.00199998,0.00047736,-0.000
 84265,-0.00198307,-0.00129877,0.00075546,-0.00046465,0.00034673,-0.000
 31167,0.00002051,-0.00002431,0.00000977,0.00002677,-0.00000468,0.00008
 431,-0.00001443,0.00006054,0.00009974,0.00183553,-0.00040549,-0.000646
 44,0.14005453,0.02746619,0.28896733,-0.00071304,-0.00744038,-0.0046910
 5,0.00346964,0.00023467,-0.00499099,-0.00099312,0.00011786,-0.00085887
 ,0.00016855,0.00007379,0.00016308,-0.00005886,0.00009533,-0.00034868,-
 0.10282982,-0.07719121,-0.11122072,0.00037324,-0.00025579,0.00021503,-
 0.00000823,-0.00002133,-0.00029467,0.00016187,0.00030513,0.00022657,0.
 00146004,0.00295851,0.00389759,-0.00321222,0.00066554,0.00222142,0.000
 39902,-0.00098507,-0.00041443,0.00114906,-0.00016416,-0.00104443,-0.00
 001667,-0.00003750,-0.00004344,0.00000218,-0.00014140,0.00017684,0.100
 77348,0.00668979,0.01032569,0.00912270,0.00049896,-0.00054732,0.002612
 54,0.00113827,-0.00577104,0.00056379,0.00036316,-0.00013146,-0.0002198
 6,0.00007675,0.00007402,-0.00012687,-0.07673374,-0.13992481,-0.1080950
 9,-0.00005773,0.00010810,0.00005231,-0.00010002,-0.00002925,0.00010811
 ,-0.00000788,0.00009490,-0.00003726,-0.01375590,-0.00464679,-0.0179882
 3,-0.00010732,0.00027962,-0.00111086,0.00017996,0.00079591,0.00026201,
 -0.00129333,0.00015324,-0.00106721,0.00004512,0.00004536,-0.00006231,-
 0.00007511,-0.00001867,0.00010980,0.08257777,0.13863952,-0.01011830,-0
 .01746033,-0.00855490,-0.00396846,0.00261067,-0.00178608,0.00061528,0.
 00194876,0.00025730,0.00008064,-0.00002358,-0.00012704,-0.00006379,0.0
 0006628,0.00036879,-0.10801342,-0.10426334,-0.18546342,-0.00016002,0.0
 0003155,-0.00013771,0.00002578,0.00010096,0.00017291,-0.00006914,-0.00
 016654,-0.00010236,0.00311331,0.00305079,0.00258396,0.00244021,0.00017
 355,-0.00062604,-0.00075038,-0.00079080,-0.00017882,-0.00045658,0.0000
 8669,0.00101627,-0.00001085,0.00002556,0.00004730,-0.00005763,0.000023
 13,0.00003448,0.11756267,0.11546651,0.19207111,0.00006761,0.00000470,0
 .00021108,0.00004624,-0.00019036,0.00015285,0.00019794,-0.00048656,-0.
 00045584,0.00140969,0.00272138,-0.00332253,0.00245720,0.01148663,0.005
 89334,0.00031190,-0.00004256,-0.00031564,-0.04265182,-0.00966946,-0.01
 167909,0.00337032,-0.01312794,-0.00229457,0.00601370,0.00012180,-0.006
 88594,0.00004371,0.00001947,0.00001760,-0.00012844,-0.00005980,0.00011
 195,-0.00002806,-0.00003150,0.00002052,0.00015146,0.00005720,-0.000095
 00,0.00044871,0.00098510,0.00049092,-0.00096859,-0.00071340,0.00054643
 ,-0.00008278,0.00000907,0.00001131,0.03253810,-0.00020746,-0.00013969,
 -0.00012949,-0.00002953,0.00016083,-0.00031815,-0.00024703,0.00005732,
 0.00028152,0.00116355,-0.00287199,0.00148706,-0.00416637,-0.01065978,-
 0.00937524,-0.00011988,0.00019103,0.00037516,-0.00787139,-0.31773093,-
 0.07605684,0.00171175,-0.00378913,0.00170046,0.00111694,0.00016671,-0.
 00141332,0.00004810,-0.00006818,-0.00000114,0.00005980,0.00016917,-0.0
 0009254,-0.00000677,0.00000553,0.00002432,0.00003458,0.00005005,0.0000
 2967,0.00011736,-0.00054750,-0.00067399,0.00005112,0.00032449,0.000465
 47,0.00010771,0.00000640,-0.00001157,0.00923208,0.33478035,0.00006622,
 -0.00010420,0.00011411,-0.00002066,-0.00014774,0.00005447,0.00028979,0
 .00032811,-0.00016176,-0.00339857,0.00298349,-0.00086132,0.00217264,0.
 01415336,0.00865791,0.00003444,0.00010440,0.00011097,-0.01182548,-0.07
 409651,-0.07555016,0.00046864,-0.02487603,0.00173699,-0.00520064,-0.00
 153157,-0.00141431,-0.00005480,0.00001607,-0.00007291,0.00011194,0.000
 09252,-0.00005610,-0.00004588,-0.00000959,0.00000977,-0.00015312,-0.00
 002775,0.00004922,0.00007352,0.00048334,0.00065822,0.00090039,-0.00078
 589,-0.00022944,-0.00002005,-0.00001657,-0.00000279,0.01449787,0.08395
 932,0.06779150,0.00037321,0.00025580,0.00021500,-0.00005883,-0.0000954
 1,-0.00034858,0.00016858,-0.00007376,0.00016306,-0.00099299,-0.0001178
 2,-0.00085874,0.00346958,-0.00023528,-0.00499107,-0.00000822,0.0000213
 0,-0.00029464,-0.00071336,0.00744010,-0.00469199,-0.10283697,0.0771829
 7,-0.11123217,0.00145983,-0.00295796,0.00389735,0.00016190,-0.00030512
 ,0.00022658,-0.00008277,-0.00010770,-0.00002004,0.00000217,0.00014140,
 0.00017681,-0.00001667,0.00003749,-0.00004344,0.00114898,0.00016406,-0
 .00104446,0.00039896,0.00098507,-0.00041453,0.00001286,0.00000864,0.00
 000186,-0.00321216,-0.00066541,0.00222152,0.10078110,0.00005773,0.0001
 0809,-0.00005233,-0.00007675,0.00007401,0.00012690,-0.00036312,-0.0001
 3142,0.00021985,-0.00113811,-0.00577129,-0.00056319,-0.00049933,-0.000
 54789,-0.00261277,0.00010004,-0.00002927,-0.00010810,-0.00669120,0.010
 32654,-0.00912461,0.07672601,-0.13990044,0.10808706,0.01375653,-0.0046
 4503,0.01798888,0.00000787,0.00009491,0.00003726,-0.00000907,0.0000064
 0,0.00001657,0.00007509,-0.00001868,-0.00010978,-0.00004512,0.00004536
 ,0.00006230,0.00129333,0.00015337,0.00106724,-0.00018004,0.00079599,-0
 .00026212,-0.00000863,0.00001312,0.00000097,0.00010750,0.00027970,0.00
 111082,-0.08256913,0.13861300,-0.00016002,-0.00003157,-0.00013770,-0.0
 0006380,-0.00006621,0.00036874,0.00008065,0.00002357,-0.00012706,0.000
 61542,-0.00194819,0.00025749,-0.00396846,-0.00261077,-0.00178536,0.000
 02577,-0.00010094,0.00017292,-0.01011806,0.01745802,-0.00855539,-0.108
 02507,0.10425539,-0.18548130,0.00311208,-0.00304999,0.00258245,-0.0000
 6916,0.00016654,-0.00010237,0.00001131,0.00001157,-0.00000279,-0.00005
 763,-0.00002312,0.00003448,-0.00001084,-0.00002556,0.00004729,-0.00045
 670,-0.00008661,0.00101620,-0.00075040,0.00079064,-0.00017884,0.000001
 86,-0.00000097,-0.00000192,0.00244026,-0.00017357,-0.00062623,0.117575
 28,-0.11545747,0.19209046,-0.00056249,-0.00001301,-0.00051240,-0.00032
 617,0.00175365,-0.00091312,-0.00215551,-0.00141685,0.00063081,-0.02003
 265,-0.00845258,0.00372810,0.00000525,0.00213044,-0.00053322,-0.000542
 15,-0.00022332,0.00007134,0.00027874,0.00066648,0.00111400,0.00251881,
 -0.00066847,-0.00078539,-0.23103379,-0.07320750,0.07065873,-0.00020594
 ,-0.00041424,0.00031332,-0.00001820,-0.00009400,-0.00000970,0.00020981
 ,-0.00002031,-0.00009240,0.00033771,-0.00001711,-0.00020199,0.00069274
 ,0.00055471,-0.00031172,0.00038406,-0.00005869,-0.00049727,0.00001330,
 -0.00002571,-0.00005191,-0.00020112,-0.00016536,0.00003255,-0.00016531
 ,-0.00061670,-0.00014221,0.25715032,-0.00031234,0.00008401,-0.00036660
 ,-0.00016350,-0.00000927,0.00015809,0.00078861,0.00020266,0.00068064,0
 .00749398,0.00272644,-0.00127923,-0.00010233,-0.00104081,0.00176396,-0
 .00004975,-0.00028121,0.00001618,0.00141442,-0.00267676,0.00078832,-0.
 02825169,-0.01617817,0.00575594,-0.07768827,-0.06482896,0.02578222,0.0
 0033498,0.00000473,-0.00009802,0.00004967,0.00001430,-0.00001558,0.000
 09435,-0.00003547,0.00008198,-0.00013495,0.00014552,0.00016235,-0.0003
 1306,0.00005479,-0.00021292,-0.00019109,-0.00001828,-0.00001578,-0.000
 07786,0.00001927,0.00004624,0.00169652,0.00007728,-0.00134890,0.001090
 65,0.00001977,-0.00006850,0.08245875,0.07657564,-0.00051637,-0.0005808
 4,-0.00105546,0.00093884,0.00127288,-0.00016853,-0.00058183,-0.0003019
 4,0.00033172,-0.01803974,-0.00800318,0.00330794,0.00056566,-0.00255079
 ,0.00017731,-0.00062317,-0.00024754,0.00116695,-0.00340280,0.00180567,
 -0.00302684,0.00258698,0.00375826,0.00026500,0.06806517,0.02267458,-0.
 06376401,0.00027012,-0.00016334,-0.00022659,0.00003233,0.00000979,-0.0
 0003745,-0.00023707,0.00003946,0.00039534,-0.00004596,0.00015592,0.000
 09571,0.00081153,0.00043537,0.00064774,0.00080865,0.00008561,-0.000691
 62,-0.00009218,0.00000858,0.00007122,0.00031796,-0.00003104,-0.0002489
 9,-0.00024214,0.00037239,0.00023511,-0.07543232,-0.02797130,0.07180394
 ,0.00006970,-0.00011034,0.00019749,-0.00093936,-0.00047856,-0.00026142
 ,-0.00099842,-0.00080577,-0.00176349,0.00304814,-0.01199825,-0.0166125
 0,-0.00316935,0.00248815,-0.00392405,0.00017467,0.00023772,-0.00003328
 ,0.00179671,-0.00010597,0.00086379,-0.00250845,-0.00253912,0.00080450,
 -0.05129398,0.02800819,0.04716446,-0.00033539,0.00019287,0.00023766,0.
 00000815,0.00003619,0.00004007,-0.00026308,-0.00038265,0.00008144,-0.0
 0028674,0.00032098,-0.00020261,-0.00017005,0.00029772,0.00041913,-0.00
 038782,-0.00112591,-0.00035403,0.00012681,0.00000691,-0.00004231,0.000
 22644,-0.00022160,-0.00018070,-0.00003002,0.00005433,0.00005397,-0.006
 23181,0.01168048,0.02489340,0.06114837,-0.00023293,-0.00024916,-0.0004
 0542,-0.00016343,0.00002369,-0.00032808,0.00022371,0.00059528,0.000681
 56,-0.00363083,0.00349640,0.00675095,0.00255861,-0.00043564,0.00090899
 ,-0.00005075,-0.00016906,0.00027307,0.00058868,-0.00608917,0.00026518,
 0.00474265,-0.00931400,-0.02868656,0.02580411,-0.09444123,-0.10021625,
 0.00021169,-0.00007560,-0.00013865,0.00002005,0.00001815,-0.00001010,-
 0.00031336,-0.00020734,0.00045680,0.00000003,0.00006611,0.00016396,-0.
 00003660,-0.00005142,-0.00029087,0.00018435,0.00044924,-0.00022506,-0.
 00006175,0.00000605,0.00007017,-0.00205016,-0.00049412,-0.00031233,-0.
 00033947,0.00048844,0.00105414,-0.00201871,0.00498670,0.00936637,-0.02
 548015,0.10131083,0.00005474,-0.00027721,-0.00032466,0.00082246,0.0003
 5675,0.00090085,0.00178009,0.00009800,-0.00078123,0.00568708,-0.008832
 65,-0.01389234,-0.00199364,-0.00049311,-0.00288265,0.00045627,-0.00006
 217,0.00066139,0.00013355,0.00195864,-0.00177744,-0.00119000,0.0017866
 0,0.00553587,0.04432003,-0.10075056,-0.25142960,0.00017631,0.00046250,
 -0.00028697,0.00005288,0.00003601,-0.00002994,-0.00002218,0.00012308,0
 .00043319,-0.00055693,0.00045398,0.00051949,-0.00054684,0.00032025,-0.
 00011180,-0.00085200,-0.00098687,0.00016131,-0.00016884,0.00004732,0.0
 0011744,0.00025132,-0.00000026,0.00010822,-0.00003460,-0.00074397,0.00
 000513,0.00312085,-0.00396455,-0.00919081,-0.05141414,0.11053047,0.272
 21546,0.00027888,-0.00066625,0.00111418,0.00000527,-0.00213055,-0.0005
 3297,-0.02003256,0.00845222,0.00372704,-0.00215558,0.00141692,0.000630
 70,-0.00032620,-0.00175375,-0.00091297,0.00251784,0.00066895,-0.000785
 24,-0.00056250,0.00001292,-0.00051235,-0.00054212,0.00022330,0.0000712
 8,-0.00020596,0.00041427,0.00031331,-0.23103756,0.07320875,0.07065067,
 -0.00020108,0.00016536,0.00003249,0.00038407,0.00005864,-0.00049727,0.
 00069272,-0.00055471,-0.00031168,0.00033773,0.00001710,-0.00020201,0.0
 0020983,0.00002031,-0.00009241,-0.00016529,0.00061669,-0.00014228,-0.0
 0001821,0.00009400,-0.00000971,0.00001331,0.00002571,-0.00005192,-0.00
 008593,0.00012286,-0.00005725,-0.00002967,0.00002858,-0.00012882,0.257
 15477,-0.00141457,-0.00267696,-0.00078829,0.00010241,-0.00104080,-0.00
 176385,-0.00749639,0.00272731,0.00127926,-0.00078870,0.00020259,-0.000
 68067,0.00016361,-0.00000945,-0.00015809,0.02825236,-0.01617827,-0.005
 75414,0.00031232,0.00008411,0.00036648,0.00004970,-0.00028121,-0.00001
 605,-0.00033497,0.00000475,0.00009802,0.07768932,-0.06482887,-0.025779
 00,-0.00169650,0.00007738,0.00134879,0.00019117,-0.00001828,0.00001571
 ,0.00031315,0.00005474,0.00021296,0.00013495,0.00014550,-0.00016237,-0
 .00009438,-0.00003549,-0.00008194,-0.00109067,0.00001973,0.00006850,-0
 .00004967,0.00001430,0.00001557,0.00007785,0.00001927,-0.00004623,-0.0
 0012288,0.00010071,-0.00009180,-0.00005955,0.00005712,-0.00001369,-0.0
 8246007,0.07657593,-0.00340263,-0.00180579,-0.00302664,0.00056551,0.00
 255100,0.00017725,-0.01803931,0.00800273,0.00330692,-0.00058179,0.0003
 0198,0.00033175,0.00093883,-0.00127292,-0.00016839,0.00258450,-0.00375
 675,0.00026590,-0.00051638,0.00058072,-0.00105553,-0.00062312,0.000247
 64,0.00116690,0.00027013,0.00016332,-0.00022661,0.06805655,-0.02267144
 ,-0.06375842,0.00031812,0.00003102,-0.00024911,0.00080866,-0.00008567,
 -0.00069161,0.00081151,-0.00043530,0.00064774,-0.00004597,-0.00015594,
 0.00009575,-0.00023706,-0.00003943,0.00039536,-0.00024203,-0.00037237,
 0.00023513,0.00003233,-0.00000979,-0.00003745,-0.00009219,-0.00000857,
 0.00007123,-0.00005725,0.00009178,-0.00006442,-0.00001978,0.00004309,-
 0.00002326,-0.07542335,0.02796765,0.07179755,0.00179673,0.00010627,0.0
 0086382,-0.00316915,-0.00248862,-0.00392379,0.00304778,0.01199666,-0.0
 1661329,-0.00099849,0.00080560,-0.00176360,-0.00093937,0.00047856,-0.0
 0026148,-0.00250846,0.00253941,0.00080341,0.00006968,0.00011034,0.0001
 9748,0.00017468,-0.00023772,-0.00003325,-0.00033540,-0.00019286,0.0002
 3769,-0.05129321,-0.02800352,0.04716620,0.00022640,0.00022159,-0.00018
 074,-0.00038781,0.00112584,-0.00035416,-0.00017003,-0.00029768,0.00041
 917,-0.00028679,-0.00032101,-0.00020262,-0.00026314,0.00038269,0.00008
 142,-0.00003004,-0.00005435,0.00005400,0.00000816,-0.00003619,0.000040
 07,0.00012681,-0.00000691,-0.00004231,-0.00002968,0.00005955,-0.000019
 79,0.00004514,0.00001569,0.00005242,-0.00623176,-0.01167848,0.02489474
 ,0.06114793,-0.00058847,-0.00608946,-0.00026473,-0.00255886,-0.0004357
 7,-0.00090938,0.00363146,0.00349704,-0.00675305,-0.00022357,0.00059518
 ,-0.00068173,0.00016348,0.00002367,0.00032821,-0.00474275,-0.00931138,
 0.02868787,0.00023297,-0.00024909,0.00040539,0.00005079,-0.00016909,-0
 .00027299,-0.00021167,-0.00007563,0.00013864,-0.02579966,-0.09442431,0
 .10020327,0.00205015,-0.00049403,0.00031246,-0.00018446,0.00044939,0.0
 0022502,0.00003655,-0.00005142,0.00029088,-0.00000010,0.00006606,-0.00
 016393,0.00031337,-0.00020741,-0.00045674,0.00033947,0.00048841,-0.001
 05417,-0.00002004,0.00001814,0.00001009,0.00006173,0.00000604,-0.00007
 016,-0.00002859,0.00005712,-0.00004310,-0.00001569,0.00002873,-0.00004
 857,0.00201875,0.00498590,-0.00936695,0.02547514,0.10129189,0.00013368
 ,-0.00195821,-0.00177721,-0.00199347,0.00049280,-0.00288267,0.00568678
 ,0.00883133,-0.01389257,0.00178007,-0.00009804,-0.00078113,0.00082244,
 -0.00035671,0.00090086,-0.00118955,-0.00178526,0.00553334,0.00005474,0
 .00027721,-0.00032475,0.00045626,0.00006225,0.00066139,0.00017634,-0.0
 0046253,-0.00028694,0.04432136,0.10073758,-0.25144896,0.00025111,0.000
 00033,0.00010821,-0.00085199,0.00098684,0.00016117,-0.00054682,-0.0003
 2028,-0.00011177,-0.00055691,-0.00045395,0.00051955,-0.00002217,-0.000
 12304,0.00043317,-0.00003465,0.00074392,0.00000516,0.00005288,-0.00003
 602,-0.00002994,-0.00016885,-0.00004732,0.00011746,-0.00012881,0.00001
 368,-0.00002326,0.00005241,0.00004858,0.00007233,0.00312056,0.00396319
 ,-0.00919002,-0.05141540,-0.11051634,0.27223657\\0.00049505,0.00086248
 ,0.00125570,0.00301419,-0.00123992,-0.00144805,0.01046771,-0.00056492,
 -0.00801994,-0.01046779,-0.00056342,0.00801973,-0.00301472,-0.00123968
 ,0.00144846,0.00240264,0.00043065,-0.00099378,-0.00049540,0.00086107,-
 0.00125655,-0.00240162,0.00043078,0.00099453,-0.00146112,0.00036533,0.
 00115414,0.00146186,0.00036522,-0.00115469,-0.00018387,0.00008630,0.00
 020116,-0.00005096,0.00003977,0.00005672,0.00012683,-0.00005300,-0.000
 13383,-0.00012680,-0.00005350,0.00013400,0.00005087,0.00003972,-0.0000
 5686,0.00014510,-0.00000827,-0.00000938,0.00018389,0.00008682,-0.00020
 100,-0.00014518,-0.00000819,0.00000915,-0.00032011,0.00004126,-0.00048
 178,0.00033526,0.00004008,0.00020260,0.00031952,0.00004148,0.00048194,
 -0.00033536,0.00003993,-0.00020227\\\@


 THE MORE ACCURATE THE CALCULATIONS BECOME, THE MORE THE CONCEPTS
 TEND TO VANISH INTO THIN AIR.
     -- R.S. MULLIKEN, J.C.P. 43,S2(1965)
 Job cpu time:       0 days  1 hours  4 minutes 20.4 seconds.
 Elapsed time:       0 days  0 hours  0 minutes 41.2 seconds.
 File lengths (MBytes):  RWF=    182 Int=      0 D2E=      0 Chk=     10 Scr=      1
 Normal termination of Gaussian 16 at Mon Jul 28 00:12:29 2025.
