 Entering Gaussian System, Link 0=g16
 Initial command:
 /home/hongchang/data/software/Gaussian/g16/l1.exe "/home/hongchang/data/software/Gaussian/g16/scratch/Gau-1403680.inp" -scrdir="/home/hongchang/data/software/Gaussian/g16/scratch/"
 Entering Link 1 = /home/hongchang/data/software/Gaussian/g16/l1.exe PID=   1403681.
  
 Copyright (c) 1988,1990,1992,1993,1995,1998,2003,2009,2016,
            Gaussian, Inc.  All Rights Reserved.
  
 This is part of the Gaussian(R) 16 program.  It is based on
 the Gaussian(R) 09 system (copyright 2009, Gaussian, Inc.),
 the Gaussian(R) 03 system (copyright 2003, Gaussian, Inc.),
 the Gaussian(R) 98 system (copyright 1998, Gaussian, Inc.),
 the Gaussian(R) 94 system (copyright 1995, Gaussian, Inc.),
 the Gaussian 92(TM) system (copyright 1992, Gaussian, Inc.),
 the Gaussian 90(TM) system (copyright 1990, Gaussian, Inc.),
 the Gaussian 88(TM) system (copyright 1988, Gaussian, Inc.),
 the Gaussian 86(TM) system (copyright 1986, Carnegie Mellon
 University), and the Gaussian 82(TM) system (copyright 1983,
 Carnegie Mellon University). Gaussian is a federally registered
 trademark of Gaussian, Inc.
  
 This software contains proprietary and confidential information,
 including trade secrets, belonging to Gaussian, Inc.
  
 This software is provided under written license and may be
 used, copied, transmitted, or stored only in accord with that
 written license.
  
 The following legend is applicable only to US Government
 contracts under FAR:
  
                    RESTRICTED RIGHTS LEGEND
  
 Use, reproduction and disclosure by the US Government is
 subject to restrictions as set forth in subparagraphs (a)
 and (c) of the Commercial Computer Software - Restricted
 Rights clause in FAR 52.227-19.
  
 Gaussian, Inc.
 340 Quinnipiac St., Bldg. 40, Wallingford CT 06492
  
  
 ---------------------------------------------------------------
 Warning -- This program may not be used in any manner that
 competes with the business of Gaussian, Inc. or will provide
 assistance to any competitor of Gaussian, Inc.  The licensee
 of this program is prohibited from giving any competitor of
 Gaussian, Inc. access to this program.  By using this program,
 the user acknowledges that Gaussian, Inc. is engaged in the
 business of creating and licensing software in the field of
 computational chemistry and represents and warrants to the
 licensee that it is not a competitor of Gaussian, Inc. and that
 it will not use this program in any manner prohibited above.
 ---------------------------------------------------------------
  

 Cite this work as:
 Gaussian 16, Revision A.03,
 M. J. Frisch, G. W. Trucks, H. B. Schlegel, G. E. Scuseria, 
 M. A. Robb, J. R. Cheeseman, G. Scalmani, V. Barone, 
 G. A. Petersson, H. Nakatsuji, X. Li, M. Caricato, A. V. Marenich, 
 J. Bloino, B. G. Janesko, R. Gomperts, B. Mennucci, H. P. Hratchian, 
 J. V. Ortiz, A. F. Izmaylov, J. L. Sonnenberg, D. Williams-Young, 
 F. Ding, F. Lipparini, F. Egidi, J. Goings, B. Peng, A. Petrone, 
 T. Henderson, D. Ranasinghe, V. G. Zakrzewski, J. Gao, N. Rega, 
 G. Zheng, W. Liang, M. Hada, M. Ehara, K. Toyota, R. Fukuda, 
 J. Hasegawa, M. Ishida, T. Nakajima, Y. Honda, O. Kitao, H. Nakai, 
 T. Vreven, K. Throssell, J. A. Montgomery, Jr., J. E. Peralta, 
 F. Ogliaro, M. J. Bearpark, J. J. Heyd, E. N. Brothers, K. N. Kudin, 
 V. N. Staroverov, T. A. Keith, R. Kobayashi, J. Normand, 
 K. Raghavachari, A. P. Rendell, J. C. Burant, S. S. Iyengar, 
 J. Tomasi, M. Cossi, J. M. Millam, M. Klene, C. Adamo, R. Cammi, 
 J. W. Ochterski, R. L. Martin, K. Morokuma, O. Farkas, 
 J. B. Foresman, and D. J. Fox, Gaussian, Inc., Wallingford CT, 2016.
 
 ******************************************
 Gaussian 16:  ES64L-G16RevA.03 25-Dec-2016
                28-Jul-2025 
 ******************************************
 %nprocshared=96
 Will use up to   96 processors via shared memory.
 %mem=600GB
 %chk=01_02_path2_8.chk
 -----------------------------------------------------------
 # freq b3lyp/6-311g(d,p) em=gd3bj scrf(solvent=Cis-Decalin)
 -----------------------------------------------------------
 1/10=4,30=1,38=1/1,3;
 2/12=2,17=6,18=5,40=1/2;
 3/5=4,6=6,7=101,11=2,25=1,30=1,70=2201,71=2,72=99,74=-5,124=41,140=1/1,2,3;
 4//1;
 5/5=2,38=5,53=99,98=1/2;
 8/6=4,10=90,11=11/1;
 11/6=1,8=1,9=11,15=111,16=1/1,2,10;
 10/6=1/2;
 6/7=2,8=2,9=2,10=2,28=1/1;
 7/8=1,10=1,25=1/1,2,3,16;
 1/10=4,30=1/3;
 99//99;
 -------------
 01_02_path2_8
 -------------
 Symbolic Z-matrix:
 Charge =  0 Multiplicity = 1
 C                    -1.35621  -1.15331   0.67785 
 C                    -0.68913  -0.1193    1.34958 
 C                    -0.70095   1.06787   0.49025 
 C                     0.70093   1.06782  -0.49035 
 C                     0.68911  -0.11944  -1.34956 
 C                    -1.88802  -0.6861   -0.50457 
 C                     1.35623  -1.15337  -0.67773 
 C                     1.88806  -0.68603   0.50462 
 C                     1.86518   0.8166    0.48135 
 C                    -1.86519   0.81653  -0.48143 
 H                    -1.37144  -2.18682   1.0008 
 H                    -0.25673  -0.17572   2.33664 
 H                    -0.68711   2.03344   0.99321 
 H                     0.68707   2.03334  -0.99341 
 H                     0.25672  -0.17596  -2.33661 
 H                    -2.42291  -1.27648  -1.23601 
 H                     1.37148  -2.18691  -1.00058 
 H                     2.42297  -1.27632   1.23612 
 H                     2.7984    1.2001    0.04426 
 H                     1.73534   1.29118   1.45589 
 H                    -2.79843   1.20003  -0.04439 
 H                    -1.73535   1.29102  -1.45602 
 

 GradGradGradGradGradGradGradGradGradGradGradGradGradGradGradGradGradGrad
 Berny optimization.
 Initialization pass.
 Trust Radius=3.00D-01 FncErr=1.00D-07 GrdErr=1.00D-07 EigMax=2.50D+02 EigMin=1.00D-04
 Number of steps in this run=      2 maximum allowed number of steps=      2.
 GradGradGradGradGradGradGradGradGradGradGradGradGradGradGradGradGradGrad

                          Input orientation:                          
 ---------------------------------------------------------------------
 Center     Atomic      Atomic             Coordinates (Angstroms)
 Number     Number       Type             X           Y           Z
 ---------------------------------------------------------------------
      1          6           0       -1.356212   -1.153313    0.677846
      2          6           0       -0.689127   -0.119304    1.349584
      3          6           0       -0.700952    1.067867    0.490254
      4          6           0        0.700925    1.067821   -0.490353
      5          6           0        0.689105   -0.119439   -1.349560
      6          6           0       -1.888022   -0.686103   -0.504571
      7          6           0        1.356233   -1.153366   -0.677729
      8          6           0        1.888061   -0.686025    0.504623
      9          6           0        1.865177    0.816603    0.481345
     10          6           0       -1.865189    0.816528   -0.481431
     11          1           0       -1.371438   -2.186822    1.000799
     12          1           0       -0.256733   -0.175721    2.336636
     13          1           0       -0.687109    2.033442    0.993209
     14          1           0        0.687066    2.033343   -0.993410
     15          1           0        0.256720   -0.175957   -2.336609
     16          1           0       -2.422906   -1.276479   -1.236012
     17          1           0        1.371478   -2.186907   -1.000580
     18          1           0        2.422970   -1.276315    1.236115
     19          1           0        2.798403    1.200096    0.044257
     20          1           0        1.735338    1.291177    1.455891
     21          1           0       -2.798430    1.200031   -0.044385
     22          1           0       -1.735354    1.291017   -1.456019
 ---------------------------------------------------------------------
                    Distance matrix (angstroms):
                    1          2          3          4          5
     1  C    0.000000
     2  C    1.401930   0.000000
     3  C    2.323402   1.465593   0.000000
     4  C    3.244987   2.593623   1.710804   0.000000
     5  C    3.059835   3.030660   2.593621   1.465593   0.000000
     6  C    1.378121   2.279584   2.339919   3.127155   2.770685
     7  C    3.032316   3.059866   3.245007   2.323405   1.401935
     8  C    3.282327   2.770745   3.127192   2.339924   2.279585
     9  C    3.781075   2.855561   2.578416   1.537137   2.368867
    10  C    2.341635   2.368865   1.537137   2.578404   2.855538
    11  H    1.082899   2.204956   3.362024   4.136535   3.747546
    12  H    2.217234   1.079083   2.270015   3.233477   3.806024
    13  H    3.271477   2.182045   1.088802   2.249448   3.466616
    14  H    4.137978   3.466615   2.249444   1.088803   2.182044
    15  H    3.555800   3.806029   3.233479   2.270014   1.079081
    16  H    2.194506   3.321197   3.382466   3.976188   3.322085
    17  H    3.365371   3.747579   4.136557   3.362027   2.204959
    18  H    3.822174   3.322153   3.976228   3.382470   3.321199
    19  H    4.816720   3.950641   3.530139   2.168575   2.851848
    20  H    4.017284   2.806918   2.630177   2.215347   3.309833
    21  H    2.853040   2.851833   2.168576   3.530135   3.950618
    22  H    3.266784   3.309835   2.215347   2.630168   2.806906
                    6          7          8          9         10
     6  C    0.000000
     7  C    3.282302   0.000000
     8  C    3.908616   1.378116   0.000000
     9  C    4.161329   2.341635   1.502983   0.000000
    10  C    1.502983   3.781081   4.161352   3.852605   0.000000
    11  H    2.187500   3.365364   3.622557   4.445905   3.385396
    12  H    3.315728   3.555819   2.866500   2.988196   3.393109
    13  H    3.328883   4.137998   3.776998   2.873476   2.245733
    14  H    3.776960   3.271476   3.328882   2.245730   2.873459
    15  H    2.866449   2.217237   3.315726   3.393107   2.988178
    16  H    1.081504   3.822137   4.686457   5.071288   2.293713
    17  H    3.622537   1.082900   2.187496   3.385397   4.445914
    18  H    4.686469   2.194503   1.081504   2.293712   5.071318
    19  H    5.081490   2.853051   2.144321   1.099556   4.708775
    20  H    4.569659   3.266779   2.199446   1.091704   4.116103
    21  H    2.144322   4.816724   5.081517   4.708783   1.099556
    22  H    2.199446   4.017294   4.569677   4.116099   1.091704
                   11         12         13         14         15
    11  H    0.000000
    12  H    2.659240   0.000000
    13  H    4.275394   2.621149   0.000000
    14  H    5.101382   4.106084   2.415577   0.000000
    15  H    4.222886   4.701367   4.106086   2.621142   0.000000
    16  H    2.633939   4.320623   4.351781   4.548154   3.098848
    17  H    3.395454   4.222908   5.101404   4.275393   2.659244
    18  H    3.909211   3.098913   4.548196   4.351779   4.320623
    19  H    5.456534   4.059770   3.707259   2.495756   3.744622
    20  H    4.685685   2.625995   2.575516   2.765639   4.326875
    21  H    3.820928   3.744620   2.495767   3.707255   4.059751
    22  H    4.273611   4.326878   2.765634   2.575495   2.625987
                   16         17         18         19         20
    16  H    0.000000
    17  H    3.909176   0.000000
    18  H    5.440030   2.633936   0.000000
    19  H    5.919002   3.820941   2.773822   0.000000
    20  H    5.579444   4.273606   2.667050   1.769495   0.000000
    21  H    2.773823   5.456537   5.919036   5.597535   4.776420
    22  H    2.667052   4.685700   5.579466   4.776405   4.530444
                   21         22
    21  H    0.000000
    22  H    1.769497   0.000000
 Stoichiometry    C10H12
 Framework group  C1[X(C10H12)]
 Deg. of freedom    60
 Full point group                 C1      NOp   1
 Largest Abelian subgroup         C1      NOp   1
 Largest concise Abelian subgroup C1      NOp   1
                         Standard orientation:                         
 ---------------------------------------------------------------------
 Center     Atomic      Atomic             Coordinates (Angstroms)
 Number     Number       Type             X           Y           Z
 ---------------------------------------------------------------------
      1          6           0        1.343041    1.165531    0.703556
      2          6           0        0.663261    0.131544    1.362479
      3          6           0        0.691470   -1.055653    0.503567
      4          6           0       -0.691449   -1.055632   -0.503601
      5          6           0       -0.663238    0.131603   -1.362461
      6          6           0        1.897305    0.698284   -0.468488
      7          6           0       -1.343055    1.165552   -0.703508
      8          6           0       -1.897340    0.698248    0.468499
      9          6           0       -1.874022   -0.804381    0.445707
     10          6           0        1.874029   -0.804347   -0.445743
     11          1           0        1.352108    2.199049    1.026710
     12          1           0        0.212119    0.187992    2.341103
     13          1           0        0.668033   -2.021213    1.006195
     14          1           0       -0.668001   -2.021169   -1.006273
     15          1           0       -0.212105    0.188090   -2.341085
     16          1           0        2.446045    1.288636   -1.189611
     17          1           0       -1.352136    2.199083   -1.026621
     18          1           0       -2.446102    1.288561    1.189638
     19          1           0       -2.798742   -1.187884   -0.009090
     20          1           0       -1.762796   -1.278926    1.422566
     21          1           0        2.798763   -1.187839    0.009035
     22          1           0        1.762805   -1.278864   -1.422616
 ---------------------------------------------------------------------
 Rotational constants (GHZ):           2.4176509           1.3677693           1.2975573
 Standard basis: 6-311G(d,p) (5D, 7F)
 There are   262 symmetry adapted cartesian basis functions of A   symmetry.
 There are   252 symmetry adapted basis functions of A   symmetry.
   252 basis functions,   416 primitive gaussians,   262 cartesian basis functions
    36 alpha electrons       36 beta electrons
       nuclear repulsion energy       525.3728318334 Hartrees.
 NAtoms=   22 NActive=   22 NUniq=   22 SFac= 1.00D+00 NAtFMM=   60 NAOKFM=F Big=F
 Integral buffers will be    131072 words long.
 Raffenetti 2 integral format.
 Two-electron integral symmetry is turned on.
 Nuclear repulsion after empirical dispersion term =      525.3269153859 Hartrees.
 Force inversion solution in PCM.
 ------------------------------------------------------------------------------
 Polarizable Continuum Model (PCM)
 =================================
 Model                : PCM.
 Atomic radii         : UFF (Universal Force Field).
 Polarization charges : Total charges.
 Charge compensation  : None.
 Solution method      : Matrix inversion.
 Cavity type          : Scaled VdW (van der Waals Surface) (Alpha=1.100).
 Cavity algorithm     : GePol (No added spheres)
                        Default sphere list used, NSphG=   22.
                        Lebedev-Laikov grids with approx.  5.0 points / Ang**2.
                        Smoothing algorithm: York/Karplus (Gamma=1.0000).
                        Polarization charges: spherical gaussians, with
                                              point-specific exponents (IZeta= 3).
                        Self-potential: point-specific (ISelfS= 7).
                        Self-field    : sphere-specific E.n sum rule (ISelfD= 2).
 1st derivatives      : Analytical E(r).r(x)/FMM algorithm (CHGder, D1EAlg=3).
                        Cavity 1st derivative terms included.
 2nd derivatives      : Analytical E(r).r(xy)/FMM algorithm (CHGder, D2EAlg=3).
                        Cavity 2nd derivative terms included.
 Solvent              : Cis-Decalin, Eps=   2.213900 Eps(inf)=   2.193361
 ------------------------------------------------------------------------------
 One-electron integrals computed using PRISM.
 NBasis=   252 RedAO= T EigKep=  5.06D-04  NBF=   252
 NBsUse=   252 1.00D-06 EigRej= -1.00D+00 NBFU=   252
 ExpMin= 1.03D-01 ExpMax= 4.56D+03 ExpMxC= 6.82D+02 IAcc=3 IRadAn=         5 AccDes= 0.00D+00
 Harris functional with IExCor=  402 and IRadAn=       5 diagonalized for initial guess.
 HarFok:  IExCor=  402 AccDes= 0.00D+00 IRadAn=         5 IDoV= 1 UseB2=F ITyADJ=14
 ICtDFT=  3500011 ScaDFX=  1.000000  1.000000  1.000000  1.000000
 FoFCou: FMM=F IPFlag=           0 FMFlag=      100000 FMFlg1=           0
         NFxFlg=           0 DoJE=T BraDBF=F KetDBF=T FulRan=T
         wScrn=  0.000000 ICntrl=       500 IOpCl=  0 I1Cent=   200000004 NGrid=           0
         NMat0=    1 NMatS0=      1 NMatT0=    0 NMatD0=    1 NMtDS0=    0 NMtDT0=    0
 Petite list used in FoFCou.
 Requested convergence on RMS density matrix=1.00D-08 within 128 cycles.
 Requested convergence on MAX density matrix=1.00D-06.
 Requested convergence on             energy=1.00D-06.
 No special actions if energy rises.
 Inv3:  Mode=1 IEnd=     7188912.
 Iteration    1 A*A^-1 deviation from unit magnitude is 5.33D-15 for   1543.
 Iteration    1 A*A^-1 deviation from orthogonality  is 2.33D-15 for   1063    883.
 Iteration    1 A^-1*A deviation from unit magnitude is 5.33D-15 for   1543.
 Iteration    1 A^-1*A deviation from orthogonality  is 1.92D-15 for   1018    306.
 Error on total polarization charges =  0.00615
 SCF Done:  E(RB3LYP) =  -388.322188209     A.U. after   13 cycles
            NFock= 13  Conv=0.14D-08     -V/T= 2.0049
 DoSCS=F DFT=T ScalE2(SS,OS)=  1.000000  1.000000
 Range of M.O.s used for correlation:     1   252
 NBasis=   252 NAE=    36 NBE=    36 NFC=     0 NFV=     0
 NROrb=    252 NOA=    36 NOB=    36 NVA=   216 NVB=   216
 Symmetrizing basis deriv contribution to polar:
 IMax=3 JMax=2 DiffMx= 0.00D+00
 G2DrvN: will do    23 centers at a time, making    1 passes.
 Calling FoFCou, ICntrl=  3107 FMM=F I1Cent=   0 AccDes= 0.00D+00.
 NEqPCM:  Using equilibrium solvation (IEInf=0, Eps=   2.2139, EpsInf=   2.1934)
 G2PCM: DoFxE=T DoFxN=T DoGrad=T DoDP/DQ/DG/TGxP=FFFF NFrqRd=   0 IEInf=0 SqF1=F DoCFld=F IF1Alg=4.
 End of G2Drv F.D. properties file   721 does not exist.
 End of G2Drv F.D. properties file   722 does not exist.
 End of G2Drv F.D. properties file   788 does not exist.
          IDoAtm=1111111111111111111111
 NEqPCM:  Using equilibrium solvation (IEInf=0, Eps=   2.2139, EpsInf=   2.1934)
          Differentiating once with respect to electric field.
                with respect to dipole field.
          Differentiating once with respect to nuclear coordinates.
 Keep R1 ints in memory in canonical form, NReq=612588626.
          There are    69 degrees of freedom in the 1st order CPHF.  IDoFFX=6 NUNeed=     3.
     66 vectors produced by pass  0 Test12= 1.13D-14 1.45D-09 XBig12= 4.17D+02 1.86D+01.
 AX will form    66 AO Fock derivatives at one time.
     66 vectors produced by pass  1 Test12= 1.13D-14 1.45D-09 XBig12= 8.72D+01 1.47D+00.
     66 vectors produced by pass  2 Test12= 1.13D-14 1.45D-09 XBig12= 8.06D-01 1.28D-01.
     66 vectors produced by pass  3 Test12= 1.13D-14 1.45D-09 XBig12= 1.65D-03 5.41D-03.
     66 vectors produced by pass  4 Test12= 1.13D-14 1.45D-09 XBig12= 2.43D-06 2.29D-04.
     48 vectors produced by pass  5 Test12= 1.13D-14 1.45D-09 XBig12= 2.69D-09 7.22D-06.
      7 vectors produced by pass  6 Test12= 1.13D-14 1.45D-09 XBig12= 3.24D-12 2.04D-07.
      3 vectors produced by pass  7 Test12= 1.13D-14 1.45D-09 XBig12= 3.64D-15 6.28D-09.
 InvSVY:  IOpt=1 It=  1 EMax= 3.20D-14
 Solved reduced A of dimension   388 with    69 vectors.
 Isotropic polarizability for W=    0.000000      136.20 Bohr**3.
 End of Minotr F.D. properties file   721 does not exist.
 End of Minotr F.D. properties file   722 does not exist.
 End of Minotr F.D. properties file   788 does not exist.

 **********************************************************************

            Population analysis using the SCF density.

 **********************************************************************

 Orbital symmetries:
       Occupied  (A) (A) (A) (A) (A) (A) (A) (A) (A) (A) (A) (A)
                 (A) (A) (A) (A) (A) (A) (A) (A) (A) (A) (A) (A)
                 (A) (A) (A) (A) (A) (A) (A) (A) (A) (A) (A) (A)
       Virtual   (A) (A) (A) (A) (A) (A) (A) (A) (A) (A) (A) (A)
                 (A) (A) (A) (A) (A) (A) (A) (A) (A) (A) (A) (A)
                 (A) (A) (A) (A) (A) (A) (A) (A) (A) (A) (A) (A)
                 (A) (A) (A) (A) (A) (A) (A) (A) (A) (A) (A) (A)
                 (A) (A) (A) (A) (A) (A) (A) (A) (A) (A) (A) (A)
                 (A) (A) (A) (A) (A) (A) (A) (A) (A) (A) (A) (A)
                 (A) (A) (A) (A) (A) (A) (A) (A) (A) (A) (A) (A)
                 (A) (A) (A) (A) (A) (A) (A) (A) (A) (A) (A) (A)
                 (A) (A) (A) (A) (A) (A) (A) (A) (A) (A) (A) (A)
                 (A) (A) (A) (A) (A) (A) (A) (A) (A) (A) (A) (A)
                 (A) (A) (A) (A) (A) (A) (A) (A) (A) (A) (A) (A)
                 (A) (A) (A) (A) (A) (A) (A) (A) (A) (A) (A) (A)
                 (A) (A) (A) (A) (A) (A) (A) (A) (A) (A) (A) (A)
                 (A) (A) (A) (A) (A) (A) (A) (A) (A) (A) (A) (A)
                 (A) (A) (A) (A) (A) (A) (A) (A) (A) (A) (A) (A)
                 (A) (A) (A) (A) (A) (A) (A) (A) (A) (A) (A) (A)
                 (A) (A) (A) (A) (A) (A) (A) (A) (A) (A) (A) (A)
                 (A) (A) (A) (A) (A) (A) (A) (A) (A) (A) (A) (A)
 The electronic state is 1-A.
 Alpha  occ. eigenvalues --  -10.18094 -10.18087 -10.16799 -10.16799 -10.16767
 Alpha  occ. eigenvalues --  -10.16767 -10.16335 -10.16333 -10.16095 -10.16094
 Alpha  occ. eigenvalues --   -0.87291  -0.83489  -0.72825  -0.70755  -0.68963
 Alpha  occ. eigenvalues --   -0.67545  -0.56899  -0.54999  -0.53184  -0.51482
 Alpha  occ. eigenvalues --   -0.51415  -0.49609  -0.45886  -0.42361  -0.38967
 Alpha  occ. eigenvalues --   -0.37983  -0.37701  -0.36982  -0.36513  -0.35710
 Alpha  occ. eigenvalues --   -0.34926  -0.33305  -0.32195  -0.29157  -0.25518
 Alpha  occ. eigenvalues --   -0.17538
 Alpha virt. eigenvalues --   -0.04904   0.02356   0.04654   0.05251   0.07455
 Alpha virt. eigenvalues --    0.07710   0.07768   0.09675   0.09746   0.10658
 Alpha virt. eigenvalues --    0.11076   0.12911   0.14007   0.14603   0.15259
 Alpha virt. eigenvalues --    0.18703   0.19772   0.20479   0.21503   0.22270
 Alpha virt. eigenvalues --    0.25591   0.27759   0.30423   0.31094   0.31804
 Alpha virt. eigenvalues --    0.33043   0.35313   0.36652   0.37437   0.37748
 Alpha virt. eigenvalues --    0.39134   0.40616   0.41996   0.42775   0.43180
 Alpha virt. eigenvalues --    0.44024   0.45428   0.46048   0.47043   0.50187
 Alpha virt. eigenvalues --    0.51381   0.51996   0.54821   0.54958   0.55517
 Alpha virt. eigenvalues --    0.56329   0.58596   0.58967   0.59488   0.59549
 Alpha virt. eigenvalues --    0.60520   0.60774   0.62122   0.63665   0.63807
 Alpha virt. eigenvalues --    0.64307   0.65747   0.66132   0.66931   0.68618
 Alpha virt. eigenvalues --    0.70321   0.70788   0.72492   0.74963   0.75352
 Alpha virt. eigenvalues --    0.76974   0.81210   0.81646   0.85243   0.86234
 Alpha virt. eigenvalues --    0.88413   0.90346   0.92218   0.97307   0.99775
 Alpha virt. eigenvalues --    1.05201   1.06170   1.08323   1.12052   1.14328
 Alpha virt. eigenvalues --    1.17083   1.20893   1.20919   1.22484   1.23502
 Alpha virt. eigenvalues --    1.27165   1.35876   1.38251   1.40573   1.43018
 Alpha virt. eigenvalues --    1.45711   1.49012   1.49185   1.50020   1.50330
 Alpha virt. eigenvalues --    1.52307   1.53024   1.54124   1.55578   1.57398
 Alpha virt. eigenvalues --    1.58138   1.59695   1.59946   1.60332   1.61787
 Alpha virt. eigenvalues --    1.64324   1.66119   1.66995   1.68311   1.71615
 Alpha virt. eigenvalues --    1.72548   1.73171   1.74612   1.76221   1.76914
 Alpha virt. eigenvalues --    1.77357   1.80627   1.81671   1.82851   1.83115
 Alpha virt. eigenvalues --    1.84286   1.85645   1.85876   1.88194   1.89558
 Alpha virt. eigenvalues --    1.91942   1.93537   1.94028   1.97016   1.97841
 Alpha virt. eigenvalues --    2.01130   2.01380   2.03240   2.06818   2.08645
 Alpha virt. eigenvalues --    2.13369   2.13403   2.15813   2.15933   2.19505
 Alpha virt. eigenvalues --    2.21629   2.21679   2.27329   2.28142   2.32439
 Alpha virt. eigenvalues --    2.36239   2.36636   2.39183   2.41468   2.42971
 Alpha virt. eigenvalues --    2.45403   2.46225   2.47104   2.48625   2.49525
 Alpha virt. eigenvalues --    2.52199   2.60156   2.61496   2.61535   2.62831
 Alpha virt. eigenvalues --    2.66971   2.67688   2.68263   2.68735   2.71062
 Alpha virt. eigenvalues --    2.71140   2.74692   2.76235   2.76415   2.78055
 Alpha virt. eigenvalues --    2.80245   2.83513   2.86516   2.88064   2.90728
 Alpha virt. eigenvalues --    2.91979   2.92793   2.98846   3.01570   3.02815
 Alpha virt. eigenvalues --    3.07656   3.10566   3.11528   3.17385   3.19108
 Alpha virt. eigenvalues --    3.29310   3.31291   3.41360   3.41771   3.42445
 Alpha virt. eigenvalues --    3.45317   3.54935   3.58163   3.71669   3.77681
 Alpha virt. eigenvalues --    3.94260   4.03919   4.04475   4.07572   4.09605
 Alpha virt. eigenvalues --    4.11117   4.13670   4.21161   4.21378   4.47371
 Alpha virt. eigenvalues --    4.48431  23.64205  23.76935  23.86690  23.88565
 Alpha virt. eigenvalues --   23.92964  23.98876  24.03501  24.06767  24.17489
 Alpha virt. eigenvalues --   24.19021
          Condensed to atoms (all electrons):
               1          2          3          4          5          6
     1  C    4.860851   0.487603  -0.077234  -0.008568   0.008247   0.524187
     2  C    0.487603   5.126394   0.418168  -0.070412  -0.071928  -0.098162
     3  C   -0.077234   0.418168   5.164706   0.240942  -0.070413  -0.077974
     4  C   -0.008568  -0.070412   0.240942   5.164706   0.418168  -0.023848
     5  C    0.008247  -0.071928  -0.070413   0.418168   5.126400   0.068143
     6  C    0.524187  -0.098162  -0.077974  -0.023848   0.068143   5.126604
     7  C   -0.020437   0.008247  -0.008567  -0.077234   0.487594  -0.013575
     8  C   -0.013573   0.068133  -0.023845  -0.077974  -0.098161  -0.005048
     9  C    0.000074  -0.015371  -0.054999   0.377039  -0.088813   0.000924
    10  C   -0.086079  -0.088813   0.377038  -0.054999  -0.015372   0.362043
    11  H    0.422105  -0.044212   0.006906  -0.000291   0.000726  -0.045532
    12  H   -0.034356   0.417086  -0.037661  -0.000481   0.000227   0.006681
    13  H    0.007254  -0.036914   0.407203  -0.030803   0.006818   0.007302
    14  H   -0.000428   0.006818  -0.030803   0.407204  -0.036913  -0.000377
    15  H   -0.000683   0.000228  -0.000481  -0.037661   0.417085   0.001770
    16  H   -0.038453   0.008633   0.004979   0.000421  -0.001812   0.416117
    17  H    0.001675   0.000726  -0.000291   0.006906  -0.044212   0.000062
    18  H    0.000200  -0.001811   0.000421   0.004979   0.008633   0.000067
    19  H   -0.000186   0.004488   0.007870  -0.033521   0.001742  -0.000320
    20  H    0.000885  -0.004068  -0.002551  -0.042961   0.008986   0.000087
    21  H   -0.001968   0.001742  -0.033521   0.007870   0.004488  -0.043698
    22  H    0.006336   0.008986  -0.042961  -0.002551  -0.004069  -0.038883
               7          8          9         10         11         12
     1  C   -0.020437  -0.013573   0.000074  -0.086079   0.422105  -0.034356
     2  C    0.008247   0.068133  -0.015371  -0.088813  -0.044212   0.417086
     3  C   -0.008567  -0.023845  -0.054999   0.377038   0.006906  -0.037661
     4  C   -0.077234  -0.077974   0.377039  -0.054999  -0.000291  -0.000481
     5  C    0.487594  -0.098161  -0.088813  -0.015372   0.000726   0.000227
     6  C   -0.013575  -0.005048   0.000924   0.362043  -0.045532   0.006681
     7  C    4.860848   0.524196  -0.086078   0.000074   0.001676  -0.000683
     8  C    0.524196   5.126594   0.362043   0.000924   0.000062   0.001771
     9  C   -0.086078   0.362043   4.904841   0.007174  -0.000070  -0.000134
    10  C    0.000074   0.000924   0.007174   4.904845   0.007988   0.005874
    11  H    0.001676   0.000062  -0.000070   0.007988   0.573059  -0.003495
    12  H   -0.000683   0.001771  -0.000134   0.005874  -0.003495   0.543955
    13  H   -0.000428  -0.000377  -0.004048  -0.028049  -0.000269  -0.003338
    14  H    0.007254   0.007301  -0.028049  -0.004049   0.000046  -0.000173
    15  H   -0.034355   0.006681   0.005874  -0.000134  -0.000051   0.000004
    16  H    0.000200   0.000067   0.000010  -0.036287  -0.004457  -0.000321
    17  H    0.422105  -0.045532   0.007988  -0.000070   0.000026  -0.000051
    18  H   -0.038453   0.416117  -0.036287   0.000010   0.000017   0.000363
    19  H   -0.001968  -0.043698   0.391748  -0.000329  -0.000004   0.000113
    20  H    0.006336  -0.038882   0.409605   0.000477  -0.000009  -0.000386
    21  H   -0.000186  -0.000320  -0.000329   0.391747  -0.000286  -0.000111
    22  H    0.000885   0.000087   0.000477   0.409606  -0.000262  -0.000315
              13         14         15         16         17         18
     1  C    0.007254  -0.000428  -0.000683  -0.038453   0.001675   0.000200
     2  C   -0.036914   0.006818   0.000228   0.008633   0.000726  -0.001811
     3  C    0.407203  -0.030803  -0.000481   0.004979  -0.000291   0.000421
     4  C   -0.030803   0.407204  -0.037661   0.000421   0.006906   0.004979
     5  C    0.006818  -0.036913   0.417085  -0.001812  -0.044212   0.008633
     6  C    0.007302  -0.000377   0.001770   0.416117   0.000062   0.000067
     7  C   -0.000428   0.007254  -0.034355   0.000200   0.422105  -0.038453
     8  C   -0.000377   0.007301   0.006681   0.000067  -0.045532   0.416117
     9  C   -0.004048  -0.028049   0.005874   0.000010   0.007988  -0.036287
    10  C   -0.028049  -0.004049  -0.000134  -0.036287  -0.000070   0.000010
    11  H   -0.000269   0.000046  -0.000051  -0.004457   0.000026   0.000017
    12  H   -0.003338  -0.000173   0.000004  -0.000321  -0.000051   0.000363
    13  H    0.557397  -0.005118  -0.000173  -0.000372   0.000046   0.000030
    14  H   -0.005118   0.557396  -0.003338   0.000030  -0.000269  -0.000372
    15  H   -0.000173  -0.003338   0.543952   0.000363  -0.003495  -0.000321
    16  H   -0.000372   0.000030   0.000363   0.558094   0.000017   0.000001
    17  H    0.000046  -0.000269  -0.003495   0.000017   0.573060  -0.004457
    18  H    0.000030  -0.000372  -0.000321   0.000001  -0.004457   0.558094
    19  H   -0.000384  -0.003200  -0.000110   0.000000  -0.000286   0.000444
    20  H    0.002863  -0.000788  -0.000315  -0.000006  -0.000262  -0.002255
    21  H   -0.003200  -0.000384   0.000112   0.000443  -0.000004   0.000000
    22  H   -0.000788   0.002863  -0.000386  -0.002255  -0.000009  -0.000006
              19         20         21         22
     1  C   -0.000186   0.000885  -0.001968   0.006336
     2  C    0.004488  -0.004068   0.001742   0.008986
     3  C    0.007870  -0.002551  -0.033521  -0.042961
     4  C   -0.033521  -0.042961   0.007870  -0.002551
     5  C    0.001742   0.008986   0.004488  -0.004069
     6  C   -0.000320   0.000087  -0.043698  -0.038883
     7  C   -0.001968   0.006336  -0.000186   0.000885
     8  C   -0.043698  -0.038882  -0.000320   0.000087
     9  C    0.391748   0.409605  -0.000329   0.000477
    10  C   -0.000329   0.000477   0.391747   0.409606
    11  H   -0.000004  -0.000009  -0.000286  -0.000262
    12  H    0.000113  -0.000386  -0.000111  -0.000315
    13  H   -0.000384   0.002863  -0.003200  -0.000788
    14  H   -0.003200  -0.000788  -0.000384   0.002863
    15  H   -0.000110  -0.000315   0.000112  -0.000386
    16  H    0.000000  -0.000006   0.000443  -0.002255
    17  H   -0.000286  -0.000262  -0.000004  -0.000009
    18  H    0.000444  -0.002255   0.000000  -0.000006
    19  H    0.586015  -0.033088  -0.000020  -0.000026
    20  H   -0.033088   0.582667  -0.000026  -0.000028
    21  H   -0.000020  -0.000026   0.586014  -0.033088
    22  H   -0.000026  -0.000028  -0.033088   0.582667
 Mulliken charges:
               1
     1  C   -0.037451
     2  C   -0.125561
     3  C   -0.166934
     4  C   -0.166934
     5  C   -0.125565
     6  C   -0.166568
     7  C   -0.037451
     8  C   -0.166565
     9  C   -0.153618
    10  C   -0.153618
    11  H    0.086325
    12  H    0.105432
    13  H    0.125348
    14  H    0.125349
    15  H    0.105434
    16  H    0.094585
    17  H    0.086325
    18  H    0.094585
    19  H    0.124722
    20  H    0.113720
    21  H    0.124722
    22  H    0.113720
 Sum of Mulliken charges =  -0.00000
 Mulliken charges with hydrogens summed into heavy atoms:
               1
     1  C    0.048874
     2  C   -0.020129
     3  C   -0.041587
     4  C   -0.041585
     5  C   -0.020131
     6  C   -0.071983
     7  C    0.048874
     8  C   -0.071980
     9  C    0.084823
    10  C    0.084824
 APT charges:
               1
     1  C   -0.022925
     2  C   -0.125010
     3  C    0.088610
     4  C    0.088599
     5  C   -0.124997
     6  C   -0.007233
     7  C   -0.022925
     8  C   -0.007242
     9  C    0.036425
    10  C    0.036423
    11  H    0.039557
    12  H    0.047010
    13  H   -0.015761
    14  H   -0.015760
    15  H    0.047007
    16  H    0.008110
    17  H    0.039555
    18  H    0.008116
    19  H   -0.045947
    20  H   -0.002832
    21  H   -0.045947
    22  H   -0.002832
 Sum of APT charges =   0.00000
 APT charges with hydrogens summed into heavy atoms:
               1
     1  C    0.016631
     2  C   -0.078000
     3  C    0.072850
     4  C    0.072839
     5  C   -0.077991
     6  C    0.000877
     7  C    0.016630
     8  C    0.000874
     9  C   -0.012355
    10  C   -0.012357
 Electronic spatial extent (au):  <R**2>=           1153.5198
 Charge=             -0.0000 electrons
 Dipole moment (field-independent basis, Debye):
    X=             -0.0000    Y=             -0.4460    Z=             -0.0000  Tot=              0.4460
 Quadrupole moment (field-independent basis, Debye-Ang):
   XX=            -62.5528   YY=            -57.4683   ZZ=            -59.8858
   XY=              0.0001   XZ=             -3.4550   YZ=              0.0000
 Traceless Quadrupole moment (field-independent basis, Debye-Ang):
   XX=             -2.5838   YY=              2.5007   ZZ=              0.0831
   XY=              0.0001   XZ=             -3.4550   YZ=              0.0000
 Octapole moment (field-independent basis, Debye-Ang**2):
  XXX=             -0.0002  YYY=              3.4335  ZZZ=             -0.0001  XYY=             -0.0000
  XXY=             -0.8657  XXZ=             -0.0000  XZZ=             -0.0001  YZZ=              0.6668
  YYZ=             -0.0000  XYZ=             -1.2971
 Hexadecapole moment (field-independent basis, Debye-Ang**3):
 XXXX=           -873.4046 YYYY=           -391.0381 ZZZZ=           -343.4382 XXXY=              0.0000
 XXXZ=            -23.2237 YYYX=             -0.0000 YYYZ=              0.0001 ZZZX=            -16.6058
 ZZZY=              0.0000 XXYY=           -204.9769 XXZZ=           -207.6631 YYZZ=           -122.3125
 XXYZ=              0.0003 YYXZ=             -0.0119 ZZXY=              0.0004
 N-N= 5.253269153859D+02 E-N=-1.951154670894D+03  KE= 3.864443777723D+02
  Exact polarizability: 174.149   0.000 115.907   0.198  -0.000 118.544
 Approx polarizability: 300.884   0.001 163.232  14.110  -0.002 202.948
 D2PCM: PCM CHGder 2nd derivatives, FixD1E=F FixD2E=F DoIter=F DoCFld=F I1PDM=0
 Calling FoFJK, ICntrl=    100127 FMM=F ISym2X=0 I1Cent= 0 IOpClX= 0 NMat=1 NMatS=1 NMatT=0.
 Full mass-weighted force constant matrix:
 Low frequencies --- -117.8044   -0.0004    0.0002    0.0005   14.8736   33.3696
 Low frequencies ---   34.3301  149.5208  173.9750
 ******    1 imaginary frequencies (negative Signs) ****** 
 Diagonal vibrational polarizability:
        9.6761384       2.1175734       8.4371033
 Harmonic frequencies (cm**-1), IR intensities (KM/Mole), Raman scattering
 activities (A**4/AMU), depolarization ratios for plane and unpolarized
 incident light, reduced masses (AMU), force constants (mDyne/A),
 and normal coordinates:
                      1                      2                      3
                      A                      A                      A
 Frequencies --   -117.7128               149.5207               173.9693
 Red. masses --      5.1459                 4.5775                 3.4058
 Frc consts  --      0.0420                 0.0603                 0.0607
 IR Inten    --      2.8314                 0.3423                 0.2742
  Atom  AN      X      Y      Z        X      Y      Z        X      Y      Z
     1   6     0.02   0.06  -0.01    -0.20  -0.01   0.04    -0.05   0.04  -0.15
     2   6    -0.22   0.09  -0.11    -0.12  -0.06   0.01    -0.08   0.13  -0.05
     3   6    -0.09   0.07  -0.08    -0.05  -0.07  -0.05    -0.08   0.03   0.05
     4   6    -0.09  -0.07  -0.08     0.05  -0.07   0.05     0.08   0.03  -0.05
     5   6    -0.22  -0.09  -0.11     0.12  -0.06  -0.01     0.08   0.13   0.05
     6   6     0.26   0.03   0.16    -0.28   0.07  -0.04    -0.06  -0.10  -0.10
     7   6     0.02  -0.06  -0.01     0.20  -0.01  -0.04     0.05   0.04   0.15
     8   6     0.26  -0.03   0.16     0.28   0.07   0.04     0.06  -0.10   0.10
     9   6     0.01  -0.03   0.03     0.06   0.06   0.04     0.01  -0.10  -0.11
    10   6     0.01   0.03   0.03    -0.06   0.06  -0.04    -0.01  -0.10   0.11
    11   1     0.04   0.06   0.01    -0.26  -0.02   0.07    -0.05   0.08  -0.29
    12   1    -0.12   0.05  -0.07    -0.03  -0.16   0.06    -0.04   0.22  -0.03
    13   1    -0.09   0.10  -0.03     0.07  -0.07  -0.04    -0.14   0.09   0.15
    14   1    -0.09  -0.10  -0.03    -0.07  -0.07   0.04     0.14   0.09  -0.15
    15   1    -0.12  -0.05  -0.07     0.03  -0.16  -0.06     0.04   0.22   0.03
    16   1     0.40   0.01   0.24    -0.39   0.15  -0.07    -0.05  -0.19  -0.17
    17   1     0.04  -0.06   0.01     0.26  -0.02  -0.07     0.05   0.08   0.29
    18   1     0.40  -0.01   0.24     0.39   0.15   0.07     0.05  -0.19   0.17
    19   1    -0.07   0.15   0.03     0.01   0.19   0.04     0.03  -0.01  -0.22
    20   1     0.01  -0.15  -0.03     0.01   0.04   0.03    -0.05  -0.24  -0.17
    21   1    -0.07  -0.15   0.03    -0.01   0.19  -0.03    -0.03  -0.01   0.22
    22   1     0.01   0.15  -0.03    -0.01   0.04  -0.03     0.05  -0.24   0.17
                      4                      5                      6
                      A                      A                      A
 Frequencies --    283.5921               313.9779               389.1642
 Red. masses --      3.0419                 3.9454                 3.5842
 Frc consts  --      0.1441                 0.2292                 0.3198
 IR Inten    --      0.0899                 0.0603                 0.0000
  Atom  AN      X      Y      Z        X      Y      Z        X      Y      Z
     1   6     0.15   0.05   0.06    -0.15   0.04  -0.13     0.10   0.00   0.07
     2   6     0.05   0.09   0.04     0.08  -0.08  -0.01     0.15  -0.01   0.15
     3   6    -0.05   0.08   0.03     0.20  -0.04   0.10     0.05   0.02   0.15
     4   6    -0.05  -0.08   0.03    -0.20  -0.04  -0.10    -0.05   0.02  -0.15
     5   6     0.05  -0.09   0.04    -0.08  -0.08   0.01    -0.15  -0.01  -0.15
     6   6    -0.02   0.06  -0.02     0.05   0.04  -0.00    -0.13  -0.00  -0.03
     7   6     0.15  -0.05   0.06     0.15   0.04   0.13    -0.10   0.00  -0.07
     8   6    -0.02  -0.06  -0.02    -0.05   0.04   0.00     0.13  -0.00   0.03
     9   6    -0.15  -0.06  -0.10    -0.14   0.04  -0.05     0.03  -0.01  -0.10
    10   6    -0.15   0.06  -0.10     0.14   0.04   0.05    -0.03  -0.01   0.10
    11   1     0.33   0.03   0.14    -0.43   0.08  -0.24     0.17  -0.00   0.09
    12   1     0.15   0.08   0.08    -0.04  -0.02  -0.07     0.32  -0.03   0.23
    13   1     0.02   0.10   0.08     0.11  -0.09  -0.01    -0.09  -0.01   0.09
    14   1     0.02  -0.10   0.08    -0.11  -0.09   0.01     0.09  -0.01  -0.09
    15   1     0.15  -0.08   0.08     0.04  -0.02   0.07    -0.32  -0.03  -0.23
    16   1    -0.01   0.04  -0.04    -0.01   0.06  -0.03    -0.27  -0.02  -0.15
    17   1     0.33  -0.03   0.14     0.43   0.08   0.24    -0.17  -0.00  -0.09
    18   1    -0.01  -0.04  -0.04     0.01   0.06   0.03     0.27  -0.02   0.15
    19   1    -0.11   0.04  -0.27    -0.16   0.12  -0.07    -0.02   0.15  -0.13
    20   1    -0.32  -0.13  -0.11    -0.19  -0.00  -0.06     0.02  -0.13  -0.17
    21   1    -0.11  -0.04  -0.27     0.16   0.12   0.07     0.02   0.15   0.13
    22   1    -0.32   0.13  -0.11     0.19  -0.00   0.06    -0.02  -0.13   0.17
                      7                      8                      9
                      A                      A                      A
 Frequencies --    439.1920               444.1572               598.0838
 Red. masses --      1.9910                 2.0684                 3.0012
 Frc consts  --      0.2263                 0.2404                 0.6325
 IR Inten    --      1.3745                 0.0571                 1.1679
  Atom  AN      X      Y      Z        X      Y      Z        X      Y      Z
     1   6     0.10  -0.01   0.06    -0.06   0.02  -0.01     0.12  -0.04   0.05
     2   6    -0.01   0.02  -0.04    -0.02   0.01   0.05    -0.14   0.03  -0.09
     3   6    -0.08   0.03  -0.08     0.04   0.02   0.12     0.14  -0.04   0.11
     4   6    -0.08  -0.03  -0.08    -0.04   0.02  -0.12    -0.14  -0.04  -0.11
     5   6    -0.01  -0.02  -0.04     0.02   0.01  -0.05     0.14   0.03   0.09
     6   6    -0.07   0.03  -0.06     0.01  -0.03   0.06    -0.06   0.01  -0.06
     7   6     0.10   0.01   0.06     0.06   0.02   0.01    -0.12  -0.04  -0.05
     8   6    -0.07  -0.03  -0.06    -0.01  -0.03  -0.06     0.06   0.01   0.06
     9   6     0.04  -0.03   0.08     0.13  -0.03   0.05    -0.04   0.02   0.02
    10   6     0.04   0.03   0.08    -0.13  -0.03  -0.05     0.04   0.02  -0.02
    11   1     0.25  -0.05   0.17    -0.12   0.04  -0.09     0.24  -0.07   0.13
    12   1    -0.07   0.02  -0.07    -0.11   0.08   0.00    -0.41   0.13  -0.22
    13   1    -0.11   0.04  -0.06    -0.07  -0.00   0.06     0.10  -0.02   0.12
    14   1    -0.11  -0.04  -0.06     0.07  -0.00  -0.06    -0.09  -0.02  -0.12
    15   1    -0.07  -0.02  -0.07     0.11   0.08  -0.00     0.41   0.13   0.22
    16   1    -0.05   0.01  -0.06     0.02  -0.04   0.05    -0.04   0.02  -0.04
    17   1     0.25   0.05   0.17     0.12   0.04   0.09    -0.24  -0.07  -0.13
    18   1    -0.05  -0.01  -0.06    -0.02  -0.04  -0.05     0.04   0.02   0.04
    19   1    -0.03  -0.21   0.38     0.05  -0.20   0.36    -0.15   0.16   0.12
    20   1     0.32   0.14   0.13     0.44   0.11   0.08     0.01  -0.06  -0.03
    21   1    -0.03   0.21   0.38    -0.05  -0.20  -0.36     0.15   0.16  -0.12
    22   1     0.32  -0.14   0.13    -0.44   0.11  -0.08    -0.01  -0.06   0.03
                     10                     11                     12
                      A                      A                      A
 Frequencies --    607.6086               707.5760               707.7222
 Red. masses --      1.9409                 1.2469                 1.5033
 Frc consts  --      0.4222                 0.3678                 0.4436
 IR Inten    --      3.0692                 2.8793                50.3539
  Atom  AN      X      Y      Z        X      Y      Z        X      Y      Z
     1   6    -0.05   0.05  -0.06    -0.03  -0.01  -0.04     0.01  -0.02   0.00
     2   6     0.11  -0.03   0.03    -0.02  -0.01  -0.02    -0.12   0.02  -0.02
     3   6    -0.10   0.01  -0.05     0.01  -0.02   0.03     0.04   0.01   0.01
     4   6    -0.10  -0.01  -0.05    -0.01  -0.02  -0.03     0.04  -0.01   0.01
     5   6     0.11   0.03   0.03     0.02  -0.01   0.02    -0.12  -0.02  -0.02
     6   6     0.05   0.03   0.02    -0.02   0.03  -0.04    -0.02  -0.03   0.00
     7   6    -0.05  -0.05  -0.06     0.03  -0.01   0.04     0.01   0.02   0.01
     8   6     0.05  -0.03   0.02     0.02   0.03   0.04    -0.02   0.03   0.00
     9   6    -0.04  -0.02   0.04     0.05   0.03  -0.01     0.05   0.02  -0.02
    10   6    -0.04   0.02   0.04    -0.05   0.03   0.01     0.05  -0.02  -0.02
    11   1    -0.09   0.05  -0.06     0.18  -0.06   0.12     0.16  -0.03   0.03
    12   1     0.54  -0.16   0.24     0.25  -0.06   0.11     0.49  -0.24   0.27
    13   1    -0.08   0.00  -0.07     0.03  -0.02   0.02     0.05   0.04   0.07
    14   1    -0.08  -0.00  -0.07    -0.03  -0.02  -0.02     0.05  -0.04   0.07
    15   1     0.54   0.16   0.24    -0.26  -0.07  -0.11     0.48   0.24   0.27
    16   1     0.04  -0.01  -0.01     0.50  -0.05   0.29    -0.22   0.03  -0.10
    17   1    -0.09  -0.05  -0.06    -0.18  -0.06  -0.13     0.16   0.03   0.03
    18   1     0.04   0.01  -0.01    -0.49  -0.05  -0.29    -0.23  -0.03  -0.11
    19   1    -0.12   0.02   0.18     0.02   0.13  -0.04     0.08  -0.01  -0.05
    20   1     0.09  -0.02   0.02     0.01  -0.06  -0.05     0.01   0.04  -0.01
    21   1    -0.12  -0.02   0.18    -0.02   0.13   0.04     0.08   0.02  -0.05
    22   1     0.09   0.02   0.02    -0.01  -0.06   0.05     0.01  -0.04  -0.00
                     13                     14                     15
                      A                      A                      A
 Frequencies --    713.1328               737.4002               793.8375
 Red. masses --      1.2454                 1.5256                 3.3602
 Frc consts  --      0.3732                 0.4888                 1.2476
 IR Inten    --     51.0457                 0.2542                 0.0124
  Atom  AN      X      Y      Z        X      Y      Z        X      Y      Z
     1   6    -0.03  -0.04  -0.03    -0.01   0.03   0.02    -0.05  -0.08   0.01
     2   6    -0.02  -0.01   0.00    -0.08   0.06  -0.02    -0.01   0.04   0.17
     3   6     0.03  -0.01   0.04     0.04  -0.01   0.01     0.03   0.15  -0.04
     4   6     0.03   0.01   0.04    -0.04  -0.01  -0.01    -0.03   0.15   0.04
     5   6    -0.02   0.01   0.00     0.08   0.06   0.02     0.01   0.04  -0.17
     6   6    -0.02   0.02  -0.05     0.00  -0.03   0.04    -0.08  -0.07  -0.03
     7   6    -0.03   0.04  -0.03     0.01   0.03  -0.02     0.05  -0.08  -0.01
     8   6    -0.02  -0.02  -0.05    -0.00  -0.03  -0.04     0.08  -0.07   0.03
     9   6    -0.02  -0.02  -0.00    -0.08  -0.04   0.02    -0.14  -0.05   0.10
    10   6    -0.02   0.02  -0.00     0.08  -0.04  -0.02     0.14  -0.05  -0.10
    11   1     0.20  -0.09   0.13     0.07   0.04  -0.00     0.10  -0.04  -0.12
    12   1     0.12  -0.01   0.06     0.51  -0.20   0.26    -0.22   0.09   0.07
    13   1     0.05  -0.02   0.01     0.08   0.05   0.12    -0.09   0.09  -0.15
    14   1     0.05   0.02   0.01    -0.08   0.05  -0.12     0.09   0.09   0.15
    15   1     0.12   0.01   0.06    -0.51  -0.20  -0.26     0.22   0.09  -0.07
    16   1     0.52  -0.04   0.32    -0.15   0.02  -0.04     0.28   0.07   0.35
    17   1     0.20   0.09   0.13    -0.07   0.04   0.00    -0.10  -0.04   0.12
    18   1     0.52   0.04   0.32     0.15   0.02   0.04    -0.28   0.07  -0.35
    19   1     0.02  -0.14   0.02    -0.11  -0.11   0.14    -0.16   0.01   0.11
    20   1     0.00   0.09   0.05     0.02   0.07   0.07    -0.08  -0.13   0.06
    21   1     0.02   0.14   0.02     0.11  -0.11  -0.14     0.16   0.01  -0.11
    22   1     0.00  -0.09   0.05    -0.02   0.07  -0.07     0.08  -0.13  -0.06
                     16                     17                     18
                      A                      A                      A
 Frequencies --    810.9444               828.6926               842.0365
 Red. masses --      3.9850                 3.8065                 4.7137
 Frc consts  --      1.5440                 1.5401                 1.9691
 IR Inten    --     14.7027                 1.9153                36.0908
  Atom  AN      X      Y      Z        X      Y      Z        X      Y      Z
     1   6     0.07  -0.15  -0.07    -0.01   0.20   0.07    -0.04  -0.15  -0.03
     2   6    -0.07  -0.08   0.00     0.13   0.05  -0.06    -0.04   0.05   0.26
     3   6    -0.04  -0.08   0.12     0.04  -0.10  -0.07    -0.08   0.18  -0.05
     4   6    -0.04   0.08   0.12    -0.04  -0.10   0.07    -0.08  -0.18  -0.05
     5   6    -0.07   0.08   0.00    -0.13   0.05   0.06    -0.04  -0.05   0.26
     6   6     0.14   0.10  -0.09    -0.14  -0.04   0.08     0.04  -0.06  -0.05
     7   6     0.07   0.15  -0.07     0.01   0.20  -0.07    -0.04   0.15  -0.03
     8   6     0.14  -0.10  -0.09     0.14  -0.04  -0.08     0.04   0.06  -0.05
     9   6    -0.07  -0.14   0.06    -0.02  -0.12   0.00     0.11  -0.04  -0.12
    10   6    -0.07   0.14   0.06     0.02  -0.12  -0.00     0.11   0.04  -0.12
    11   1    -0.20  -0.15  -0.05     0.06   0.20   0.07     0.05  -0.07  -0.28
    12   1     0.02   0.12   0.03    -0.20   0.05  -0.21    -0.17   0.22   0.19
    13   1     0.08  -0.16  -0.03     0.09  -0.00   0.12     0.02   0.11  -0.16
    14   1     0.08   0.16  -0.03    -0.09  -0.00  -0.12     0.02  -0.11  -0.16
    15   1     0.02  -0.12   0.03     0.20   0.05   0.21    -0.17  -0.22   0.19
    16   1    -0.24   0.17  -0.33     0.28  -0.20   0.26    -0.03   0.19   0.10
    17   1    -0.20   0.15  -0.05    -0.06   0.20  -0.07     0.05   0.07  -0.28
    18   1    -0.24  -0.17  -0.33    -0.28  -0.20  -0.26    -0.03  -0.19   0.10
    19   1    -0.06  -0.15   0.07    -0.09  -0.05   0.09     0.00   0.02   0.07
    20   1    -0.08  -0.01   0.13    -0.05   0.03   0.08     0.19   0.05  -0.08
    21   1    -0.06   0.15   0.07     0.09  -0.05  -0.09     0.00  -0.02   0.07
    22   1    -0.08   0.01   0.13     0.05   0.03  -0.08     0.19  -0.05  -0.08
                     19                     20                     21
                      A                      A                      A
 Frequencies --    900.7074               930.0355               934.4513
 Red. masses --      2.4474                 2.0981                 1.9120
 Frc consts  --      1.1698                 1.0692                 0.9837
 IR Inten    --      9.8104                14.6773                 0.0028
  Atom  AN      X      Y      Z        X      Y      Z        X      Y      Z
     1   6    -0.01   0.02   0.02    -0.02   0.00  -0.01    -0.01  -0.00   0.01
     2   6    -0.02  -0.05  -0.08     0.02   0.00  -0.01     0.03  -0.05  -0.07
     3   6     0.13   0.16  -0.04    -0.11  -0.04   0.05    -0.05   0.04   0.03
     4   6    -0.13   0.16   0.04    -0.11   0.04   0.05     0.05   0.04  -0.03
     5   6     0.02  -0.05   0.08     0.02  -0.00  -0.01    -0.03  -0.05   0.07
     6   6    -0.01  -0.04   0.03     0.00   0.10  -0.04    -0.01   0.11  -0.05
     7   6     0.01   0.02  -0.02    -0.02  -0.00  -0.01     0.01  -0.00  -0.01
     8   6     0.01  -0.04  -0.03     0.00  -0.10  -0.04     0.01   0.11   0.05
     9   6     0.09  -0.04   0.01     0.12   0.07  -0.02    -0.07  -0.09  -0.02
    10   6    -0.09  -0.04  -0.01     0.12  -0.07  -0.02     0.07  -0.09   0.02
    11   1     0.01   0.02   0.04     0.04  -0.07   0.22    -0.11  -0.07   0.24
    12   1    -0.03  -0.44  -0.07     0.05   0.16  -0.01     0.00  -0.09  -0.08
    13   1    -0.06   0.12  -0.15    -0.39   0.03   0.18    -0.41   0.10   0.12
    14   1     0.06   0.12   0.15    -0.39  -0.03   0.18     0.41   0.10  -0.12
    15   1     0.03  -0.44   0.07     0.05  -0.16  -0.01    -0.00  -0.09   0.08
    16   1    -0.08  -0.06  -0.04    -0.01   0.26   0.08     0.03   0.22   0.06
    17   1    -0.01   0.02  -0.04     0.04   0.07   0.22     0.11  -0.07  -0.24
    18   1     0.08  -0.06   0.04    -0.01  -0.26   0.08    -0.03   0.22  -0.06
    19   1     0.19   0.01  -0.27     0.18   0.15  -0.22    -0.10  -0.19   0.16
    20   1    -0.05  -0.26  -0.09    -0.08  -0.02  -0.05     0.20  -0.10  -0.05
    21   1    -0.19   0.01   0.27     0.18  -0.15  -0.22     0.10  -0.19  -0.16
    22   1     0.05  -0.26   0.09    -0.08   0.02  -0.05    -0.20  -0.10   0.05
                     22                     23                     24
                      A                      A                      A
 Frequencies --    950.9885               955.2439               968.5163
 Red. masses --      1.3573                 1.3740                 1.6631
 Frc consts  --      0.7232                 0.7387                 0.9191
 IR Inten    --      1.2622                13.5618                28.5862
  Atom  AN      X      Y      Z        X      Y      Z        X      Y      Z
     1   6    -0.10   0.02  -0.04    -0.10   0.01  -0.04     0.01   0.02  -0.04
     2   6     0.02   0.00   0.02     0.03  -0.01   0.00    -0.01   0.02   0.03
     3   6    -0.00  -0.01   0.01     0.02   0.01   0.00    -0.04  -0.09   0.00
     4   6     0.00  -0.01  -0.01     0.02  -0.01   0.00    -0.04   0.09   0.00
     5   6    -0.02   0.00  -0.02     0.03   0.01   0.00    -0.01  -0.02   0.03
     6   6     0.04   0.00   0.03     0.06  -0.01   0.02    -0.03  -0.07   0.03
     7   6     0.10   0.02   0.04    -0.10  -0.01  -0.04     0.01  -0.02  -0.04
     8   6    -0.04   0.00  -0.03     0.06   0.01   0.02    -0.03   0.07   0.03
     9   6    -0.00  -0.02   0.03    -0.02   0.00  -0.01     0.04  -0.09   0.02
    10   6     0.00  -0.02  -0.03    -0.02  -0.00  -0.01     0.04   0.09   0.02
    11   1     0.52  -0.11   0.33     0.48  -0.12   0.35     0.27   0.03  -0.08
    12   1    -0.10   0.09  -0.04    -0.12   0.04  -0.07     0.03   0.18   0.04
    13   1     0.02   0.02   0.06     0.10   0.02   0.02    -0.14  -0.16  -0.13
    14   1    -0.02   0.02  -0.06     0.10  -0.02   0.02    -0.14   0.16  -0.13
    15   1     0.10   0.09   0.04    -0.12  -0.04  -0.07     0.03  -0.18   0.04
    16   1    -0.21   0.07  -0.11    -0.22   0.03  -0.16     0.00  -0.24  -0.07
    17   1    -0.52  -0.11  -0.33     0.48   0.12   0.35     0.27  -0.03  -0.08
    18   1     0.21   0.07   0.11    -0.22  -0.03  -0.16     0.00   0.24  -0.07
    19   1     0.02   0.01  -0.05    -0.07   0.03   0.08     0.15  -0.13  -0.17
    20   1    -0.06  -0.06   0.01     0.01   0.05   0.01     0.07  -0.38  -0.12
    21   1    -0.02   0.01   0.05    -0.07  -0.03   0.08     0.15   0.13  -0.17
    22   1     0.06  -0.06  -0.01     0.01  -0.05   0.01     0.07   0.38  -0.12
                     25                     26                     27
                      A                      A                      A
 Frequencies --    981.1487               989.0972              1023.5152
 Red. masses --      1.9555                 1.8098                 1.5548
 Frc consts  --      1.1091                 1.0432                 0.9597
 IR Inten    --     18.2310                 0.2627                 0.0343
  Atom  AN      X      Y      Z        X      Y      Z        X      Y      Z
     1   6    -0.01  -0.03  -0.01    -0.01  -0.01  -0.03     0.01   0.00  -0.01
     2   6     0.00  -0.03   0.00     0.01  -0.04  -0.03     0.01  -0.03  -0.05
     3   6     0.01   0.10  -0.07     0.01   0.05  -0.04    -0.05   0.01   0.07
     4   6     0.01  -0.10  -0.07    -0.01   0.05   0.04     0.05   0.01  -0.07
     5   6     0.00   0.03   0.00    -0.01  -0.04   0.03    -0.01  -0.03   0.05
     6   6    -0.02  -0.00  -0.05    -0.04  -0.06  -0.01    -0.02  -0.05   0.05
     7   6    -0.01   0.03  -0.01     0.01  -0.01   0.03    -0.01   0.00   0.01
     8   6    -0.02   0.00  -0.05     0.04  -0.06   0.01     0.02  -0.05  -0.05
     9   6     0.04  -0.03   0.15    -0.05   0.08  -0.12    -0.00   0.05   0.07
    10   6     0.04   0.03   0.15     0.05   0.08   0.12     0.00   0.05  -0.07
    11   1     0.03  -0.06   0.08     0.21  -0.05   0.08     0.03   0.03  -0.10
    12   1    -0.03  -0.13  -0.01    -0.06  -0.11  -0.06     0.01  -0.13  -0.05
    13   1     0.01   0.09  -0.09    -0.06   0.02  -0.12    -0.44   0.07   0.16
    14   1     0.01  -0.09  -0.09     0.06   0.02   0.12     0.44   0.07  -0.16
    15   1    -0.03   0.13  -0.01     0.06  -0.11   0.06    -0.01  -0.13   0.05
    16   1     0.06  -0.11  -0.08     0.05  -0.28  -0.11    -0.01  -0.11   0.01
    17   1     0.03   0.06   0.08    -0.21  -0.05  -0.08    -0.03   0.03   0.10
    18   1     0.06   0.11  -0.08    -0.05  -0.28   0.11     0.01  -0.11  -0.01
    19   1     0.08   0.29  -0.23    -0.13  -0.12   0.23    -0.06   0.27  -0.01
    20   1    -0.44  -0.19   0.12     0.24   0.37  -0.01    -0.29   0.17   0.16
    21   1     0.08  -0.29  -0.23     0.13  -0.12  -0.23     0.06   0.27   0.01
    22   1    -0.44   0.19   0.12    -0.24   0.37   0.01     0.29   0.17  -0.16
                     28                     29                     30
                      A                      A                      A
 Frequencies --   1036.6208              1084.4947              1092.5807
 Red. masses --      1.7438                 1.1876                 1.2848
 Frc consts  --      1.1040                 0.8229                 0.9037
 IR Inten    --     32.1516                 8.1207                 0.0689
  Atom  AN      X      Y      Z        X      Y      Z        X      Y      Z
     1   6    -0.02  -0.06   0.00     0.02   0.04  -0.03    -0.03  -0.05   0.03
     2   6     0.05  -0.03  -0.08    -0.01  -0.05   0.03     0.03   0.03  -0.04
     3   6    -0.05   0.07   0.05    -0.02   0.01   0.02     0.02   0.04   0.00
     4   6    -0.05  -0.07   0.05    -0.02  -0.01   0.02    -0.02   0.04  -0.00
     5   6     0.05   0.03  -0.08    -0.01   0.05   0.03    -0.03   0.03   0.04
     6   6    -0.01  -0.06   0.02     0.01   0.02   0.00    -0.01  -0.04   0.00
     7   6    -0.02   0.06   0.00     0.02  -0.04  -0.03     0.03  -0.05  -0.03
     8   6    -0.01   0.06   0.02     0.01  -0.02   0.00     0.01  -0.04  -0.00
     9   6     0.02  -0.06  -0.03    -0.00  -0.00  -0.00     0.00   0.01   0.02
    10   6     0.02   0.06  -0.03    -0.00   0.00  -0.00    -0.00   0.01  -0.02
    11   1    -0.13  -0.09   0.08     0.24   0.12  -0.28    -0.32  -0.17   0.39
    12   1     0.01  -0.13  -0.10    -0.21  -0.45  -0.04     0.14   0.34  -0.02
    13   1     0.02   0.28   0.47    -0.16   0.05   0.09     0.06   0.08   0.08
    14   1     0.02  -0.28   0.47    -0.16  -0.05   0.09    -0.06   0.08  -0.08
    15   1     0.01   0.13  -0.10    -0.21   0.45  -0.04    -0.14   0.34   0.02
    16   1     0.02  -0.12   0.00    -0.01   0.07   0.02     0.03  -0.18  -0.08
    17   1    -0.13   0.09   0.08     0.24  -0.12  -0.28     0.32  -0.17  -0.39
    18   1     0.02   0.12   0.00    -0.01  -0.07   0.02    -0.03  -0.18   0.08
    19   1     0.01  -0.10   0.01     0.10  -0.17  -0.07     0.03  -0.00  -0.05
    20   1     0.15  -0.22  -0.11    -0.04   0.09   0.05    -0.07   0.05   0.04
    21   1     0.01   0.10   0.01     0.10   0.17  -0.07    -0.03  -0.00   0.05
    22   1     0.15   0.22  -0.11    -0.04  -0.09   0.05     0.07   0.05  -0.04
                     31                     32                     33
                      A                      A                      A
 Frequencies --   1108.8655              1109.7108              1125.2236
 Red. masses --      1.4076                 1.3191                 1.1508
 Frc consts  --      1.0197                 0.9571                 0.8585
 IR Inten    --      6.6130                 7.6592                 0.1999
  Atom  AN      X      Y      Z        X      Y      Z        X      Y      Z
     1   6     0.00  -0.07  -0.03    -0.01   0.05   0.04    -0.01   0.01   0.02
     2   6     0.05   0.00  -0.06    -0.03  -0.00   0.05     0.01  -0.01   0.04
     3   6    -0.00   0.03   0.00    -0.00   0.01   0.01    -0.03   0.01   0.01
     4   6     0.00   0.03  -0.00    -0.00  -0.01   0.01     0.03   0.01  -0.01
     5   6    -0.05   0.00   0.06    -0.03   0.00   0.05    -0.01  -0.01  -0.04
     6   6    -0.04  -0.02   0.05     0.04   0.01  -0.05     0.03   0.00  -0.04
     7   6    -0.00  -0.07   0.03    -0.01  -0.05   0.04     0.01   0.01  -0.02
     8   6     0.04  -0.02  -0.05     0.04  -0.01  -0.05    -0.03   0.00   0.04
     9   6     0.01   0.02  -0.03     0.01   0.01  -0.04    -0.01   0.01   0.01
    10   6    -0.01   0.02   0.03     0.01  -0.01  -0.04     0.01   0.01  -0.01
    11   1     0.09  -0.03  -0.20    -0.20  -0.02   0.28    -0.08   0.00   0.05
    12   1     0.03   0.06  -0.08    -0.06  -0.12   0.05    -0.15  -0.30  -0.01
    13   1     0.21   0.17   0.29    -0.13  -0.00  -0.03     0.28   0.22   0.44
    14   1    -0.21   0.17  -0.29    -0.13   0.00  -0.03    -0.28   0.22  -0.44
    15   1    -0.03   0.06   0.08    -0.06   0.12   0.05     0.15  -0.30   0.01
    16   1    -0.12   0.35   0.30     0.15  -0.41  -0.32     0.10  -0.15  -0.12
    17   1    -0.09  -0.03   0.20    -0.20   0.02   0.28     0.08   0.00  -0.05
    18   1     0.12   0.35  -0.30     0.15   0.41  -0.32    -0.10  -0.15   0.12
    19   1     0.09  -0.12  -0.07     0.08  -0.13  -0.05    -0.03   0.03   0.04
    20   1     0.04   0.09  -0.00     0.06   0.07  -0.02     0.00  -0.03  -0.00
    21   1    -0.09  -0.12   0.07     0.08   0.13  -0.05     0.03   0.03  -0.04
    22   1    -0.04   0.09   0.00     0.06  -0.07  -0.02    -0.00  -0.03   0.00
                     34                     35                     36
                      A                      A                      A
 Frequencies --   1144.5095              1162.5777              1244.1347
 Red. masses --      1.2154                 1.1499                 1.3664
 Frc consts  --      0.9380                 0.9157                 1.2461
 IR Inten    --      9.2572                 1.7151                 0.3392
  Atom  AN      X      Y      Z        X      Y      Z        X      Y      Z
     1   6    -0.01  -0.03  -0.00    -0.01  -0.01   0.00     0.00   0.04   0.01
     2   6     0.03   0.01  -0.03     0.02   0.00  -0.02    -0.00  -0.03   0.00
     3   6     0.01   0.04  -0.03    -0.02   0.01  -0.04    -0.10  -0.02  -0.01
     4   6     0.01  -0.04  -0.03     0.02   0.01   0.04    -0.10   0.02  -0.01
     5   6     0.03  -0.01  -0.03    -0.02   0.00   0.02    -0.00   0.03   0.00
     6   6     0.02  -0.03   0.05     0.03  -0.02   0.04     0.00  -0.01   0.00
     7   6    -0.01   0.03  -0.00     0.01  -0.01  -0.00     0.00  -0.04   0.01
     8   6     0.02   0.03   0.05    -0.03  -0.02  -0.04     0.00   0.01   0.00
     9   6    -0.03  -0.00   0.01     0.01   0.00  -0.01     0.05   0.00  -0.01
    10   6    -0.03   0.00   0.01    -0.01   0.00   0.01     0.05  -0.00  -0.01
    11   1    -0.07  -0.04   0.03    -0.03  -0.00  -0.03     0.01   0.05  -0.00
    12   1     0.08   0.19  -0.02     0.05   0.05  -0.02    -0.00   0.05   0.00
    13   1    -0.19   0.03  -0.07     0.04   0.03   0.01     0.62  -0.02   0.05
    14   1    -0.19  -0.03  -0.07    -0.04   0.03  -0.01     0.62   0.02   0.05
    15   1     0.08  -0.19  -0.02    -0.05   0.05   0.02    -0.00  -0.05   0.00
    16   1    -0.09   0.03   0.03    -0.07   0.02   0.01     0.02  -0.05  -0.02
    17   1    -0.07   0.04   0.03     0.03  -0.00   0.03     0.01  -0.05  -0.00
    18   1    -0.09  -0.03   0.03     0.07   0.02  -0.01     0.02   0.05  -0.02
    19   1     0.25  -0.42  -0.19    -0.29   0.44   0.23     0.14  -0.07  -0.13
    20   1    -0.16   0.25   0.15     0.20  -0.28  -0.18    -0.10   0.18   0.09
    21   1     0.25   0.42  -0.19     0.29   0.44  -0.23     0.14   0.07  -0.13
    22   1    -0.16  -0.26   0.15    -0.20  -0.28   0.18    -0.10  -0.18   0.09
                     37                     38                     39
                      A                      A                      A
 Frequencies --   1270.4208              1273.2856              1297.9346
 Red. masses --      2.1177                 1.8928                 1.3262
 Frc consts  --      2.0138                 1.8081                 1.3164
 IR Inten    --      2.6189                 7.1414                 0.7946
  Atom  AN      X      Y      Z        X      Y      Z        X      Y      Z
     1   6    -0.00  -0.05  -0.02     0.00  -0.03  -0.02    -0.02  -0.02   0.04
     2   6    -0.01   0.04   0.05    -0.01   0.02   0.05    -0.01  -0.04   0.02
     3   6     0.08  -0.00  -0.08     0.02  -0.02  -0.08     0.03  -0.04  -0.06
     4   6    -0.08  -0.00   0.08     0.02   0.02  -0.08     0.03   0.04  -0.06
     5   6     0.01   0.04  -0.05    -0.01  -0.02   0.05    -0.01   0.04   0.02
     6   6     0.02   0.06  -0.01     0.02   0.06  -0.02    -0.00   0.05   0.02
     7   6     0.00  -0.05   0.02     0.00   0.03  -0.02    -0.02   0.02   0.04
     8   6    -0.02   0.06   0.01     0.02  -0.06  -0.02    -0.00  -0.05   0.02
     9   6     0.09  -0.11  -0.08    -0.08   0.12   0.07     0.01  -0.03  -0.02
    10   6    -0.09  -0.11   0.08    -0.08  -0.12   0.07     0.01   0.03  -0.02
    11   1     0.01  -0.05  -0.03     0.00  -0.03  -0.03     0.15   0.07  -0.26
    12   1    -0.03   0.01   0.05    -0.03   0.06   0.04     0.07   0.27   0.04
    13   1    -0.17   0.13   0.16     0.19   0.14   0.25    -0.09   0.17   0.36
    14   1     0.17   0.13  -0.16     0.19  -0.14   0.25    -0.09  -0.17   0.36
    15   1     0.03   0.01  -0.05    -0.03  -0.06   0.04     0.07  -0.27   0.04
    16   1    -0.01   0.07  -0.04     0.01   0.06  -0.03     0.07  -0.21  -0.14
    17   1    -0.01  -0.05   0.03     0.00   0.03  -0.03     0.15  -0.07  -0.26
    18   1     0.01   0.07   0.04     0.01  -0.06  -0.03     0.07   0.21  -0.14
    19   1    -0.15   0.25   0.12     0.18  -0.25  -0.16    -0.09   0.11   0.06
    20   1    -0.26   0.39   0.21     0.24  -0.34  -0.19    -0.11   0.17   0.09
    21   1     0.15   0.25  -0.12     0.18   0.25  -0.16    -0.09  -0.11   0.06
    22   1     0.26   0.40  -0.21     0.24   0.34  -0.19    -0.11  -0.17   0.09
                     40                     41                     42
                      A                      A                      A
 Frequencies --   1300.8014              1355.2414              1363.3666
 Red. masses --      1.3318                 2.0696                 2.6541
 Frc consts  --      1.3277                 2.2396                 2.9067
 IR Inten    --      0.0684                 3.3690                 9.4339
  Atom  AN      X      Y      Z        X      Y      Z        X      Y      Z
     1   6    -0.02  -0.02   0.03    -0.02  -0.01   0.01    -0.02   0.00   0.02
     2   6    -0.01  -0.04   0.01     0.03   0.12   0.03     0.02   0.14   0.05
     3   6     0.05  -0.02  -0.06     0.06  -0.09  -0.06     0.00  -0.14  -0.09
     4   6    -0.05  -0.02   0.06    -0.06  -0.09   0.06     0.00   0.14  -0.09
     5   6     0.01  -0.04  -0.01    -0.03   0.12  -0.03     0.02  -0.14   0.05
     6   6    -0.01   0.05   0.02     0.03  -0.08  -0.04     0.05  -0.09  -0.07
     7   6     0.02  -0.02  -0.03     0.02  -0.01  -0.01    -0.02  -0.00   0.02
     8   6     0.01   0.05  -0.02    -0.03  -0.08   0.04     0.05   0.09  -0.07
     9   6    -0.01   0.03   0.02     0.01   0.09  -0.01    -0.01  -0.09   0.02
    10   6     0.01   0.03  -0.02    -0.01   0.09   0.01    -0.01   0.09   0.02
    11   1     0.15   0.07  -0.25    -0.13  -0.07   0.18    -0.15  -0.05   0.20
    12   1     0.08   0.28   0.04    -0.09  -0.29   0.00    -0.09  -0.29   0.04
    13   1    -0.24   0.15   0.27    -0.43   0.01   0.13    -0.05   0.07   0.34
    14   1     0.24   0.15  -0.27     0.43   0.01  -0.13    -0.05  -0.07   0.34
    15   1    -0.08   0.28  -0.04     0.09  -0.29  -0.00    -0.09   0.29   0.04
    16   1     0.06  -0.23  -0.15    -0.05   0.19   0.12    -0.06   0.27   0.15
    17   1    -0.15   0.07   0.25     0.13  -0.07  -0.18    -0.15   0.05   0.20
    18   1    -0.06  -0.23   0.15     0.05   0.19  -0.12    -0.06  -0.27   0.15
    19   1     0.09  -0.11  -0.08     0.09  -0.09  -0.03    -0.02   0.03  -0.04
    20   1     0.11  -0.16  -0.09     0.11  -0.12  -0.12    -0.13   0.11   0.13
    21   1    -0.09  -0.11   0.08    -0.09  -0.09   0.03    -0.02  -0.03  -0.04
    22   1    -0.11  -0.16   0.09    -0.11  -0.12   0.12    -0.13  -0.11   0.13
                     43                     44                     45
                      A                      A                      A
 Frequencies --   1445.8165              1453.3207              1476.6499
 Red. masses --      2.7186                 2.2811                 1.1770
 Frc consts  --      3.3483                 2.8386                 1.5120
 IR Inten    --      9.5397                 3.5969                 7.3087
  Atom  AN      X      Y      Z        X      Y      Z        X      Y      Z
     1   6    -0.11  -0.11   0.14    -0.08  -0.12   0.08     0.01   0.03   0.00
     2   6     0.07   0.13  -0.08     0.07   0.12  -0.06    -0.01  -0.04   0.00
     3   6    -0.03  -0.01   0.04    -0.02  -0.00   0.05     0.01   0.02   0.00
     4   6    -0.03   0.01   0.04     0.02  -0.00  -0.05     0.01  -0.02   0.00
     5   6     0.07  -0.13  -0.08    -0.07   0.12   0.06    -0.01   0.04   0.00
     6   6     0.04   0.05  -0.03    -0.00   0.07   0.02     0.00  -0.02  -0.02
     7   6    -0.11   0.11   0.14     0.08  -0.12  -0.08     0.01  -0.03   0.00
     8   6     0.04  -0.05  -0.03     0.00   0.07  -0.02     0.00   0.02  -0.02
     9   6    -0.01   0.01   0.02     0.01   0.00  -0.01    -0.04  -0.04   0.03
    10   6    -0.01  -0.01   0.02    -0.01   0.00   0.01    -0.04   0.04   0.03
    11   1     0.20   0.03  -0.37     0.14  -0.03  -0.27    -0.00   0.02   0.02
    12   1     0.03  -0.23  -0.09    -0.02  -0.24  -0.10     0.02   0.08   0.01
    13   1     0.06  -0.14  -0.22     0.05  -0.13  -0.19    -0.04   0.02   0.01
    14   1     0.06   0.14  -0.22    -0.05  -0.13   0.19    -0.04  -0.03   0.01
    15   1     0.03   0.23  -0.09     0.02  -0.24   0.10     0.02  -0.08   0.01
    16   1     0.06  -0.14  -0.18     0.07  -0.22  -0.16    -0.02   0.06   0.04
    17   1     0.20  -0.03  -0.37    -0.14  -0.03   0.27    -0.00  -0.02   0.02
    18   1     0.06   0.14  -0.18    -0.07  -0.22   0.16    -0.02  -0.06   0.04
    19   1     0.08   0.05  -0.18    -0.04  -0.16   0.21     0.05   0.27  -0.39
    20   1     0.14   0.04   0.01    -0.23  -0.13  -0.03     0.45   0.21   0.08
    21   1     0.08  -0.05  -0.18     0.04  -0.16  -0.21     0.05  -0.27  -0.39
    22   1     0.14  -0.04   0.01     0.23  -0.13   0.03     0.45  -0.21   0.08
                     46                     47                     48
                      A                      A                      A
 Frequencies --   1477.3088              1495.1528              1520.3214
 Red. masses --      1.2332                 3.0037                 3.6548
 Frc consts  --      1.5857                 3.9562                 4.9771
 IR Inten    --      2.2794                 7.5466                 0.8771
  Atom  AN      X      Y      Z        X      Y      Z        X      Y      Z
     1   6     0.01   0.04   0.00     0.06  -0.09  -0.15     0.11  -0.05  -0.22
     2   6    -0.02  -0.05   0.01     0.03   0.10   0.03    -0.02   0.04   0.05
     3   6     0.00   0.01  -0.01    -0.01  -0.03  -0.02    -0.00  -0.01  -0.03
     4   6    -0.00   0.01   0.01    -0.01   0.03  -0.02     0.00  -0.01   0.03
     5   6     0.02  -0.05  -0.01     0.03  -0.10   0.03     0.02   0.04  -0.05
     6   6     0.01  -0.03  -0.02    -0.09   0.11   0.15    -0.09   0.10   0.18
     7   6    -0.01   0.04  -0.00     0.06   0.09  -0.15    -0.11  -0.05   0.22
     8   6    -0.01  -0.03   0.02    -0.09  -0.11   0.15     0.09   0.10  -0.18
     9   6     0.04   0.04  -0.03     0.01  -0.01  -0.02    -0.01   0.01   0.02
    10   6    -0.04   0.04   0.03     0.01   0.01  -0.02     0.01   0.01  -0.02
    11   1    -0.01   0.04   0.03    -0.11  -0.21   0.14    -0.17  -0.21   0.24
    12   1     0.04   0.12   0.02    -0.13  -0.28  -0.02    -0.10  -0.19   0.04
    13   1    -0.01   0.04   0.04     0.06  -0.02   0.02     0.02   0.01   0.03
    14   1     0.01   0.04  -0.04     0.06   0.02   0.02    -0.02   0.01  -0.03
    15   1    -0.04   0.12  -0.02    -0.13   0.28  -0.02     0.10  -0.19  -0.04
    16   1    -0.03   0.09   0.05     0.02  -0.31  -0.07    -0.01  -0.27  -0.02
    17   1     0.01   0.04  -0.03    -0.11   0.21   0.14     0.17  -0.21  -0.24
    18   1     0.03   0.09  -0.05     0.02   0.31  -0.07     0.01  -0.27   0.02
    19   1    -0.06  -0.25   0.39    -0.01   0.18  -0.12     0.02  -0.17   0.10
    20   1    -0.44  -0.20  -0.08     0.10   0.25   0.09    -0.10  -0.25  -0.09
    21   1     0.06  -0.25  -0.39    -0.01  -0.18  -0.12    -0.02  -0.17  -0.10
    22   1     0.44  -0.20   0.08     0.10  -0.25   0.09     0.10  -0.25   0.09
                     49                     50                     51
                      A                      A                      A
 Frequencies --   2985.4913              2985.7811              3077.0663
 Red. masses --      1.0710                 1.0714                 1.0901
 Frc consts  --      5.6243                 5.6274                 6.0811
 IR Inten    --    135.7807                23.6829                14.0233
  Atom  AN      X      Y      Z        X      Y      Z        X      Y      Z
     1   6     0.00   0.00  -0.00     0.00   0.00  -0.00     0.00  -0.00  -0.00
     2   6    -0.00  -0.00   0.00    -0.00  -0.00   0.00    -0.00  -0.00   0.00
     3   6    -0.00  -0.00   0.00    -0.00  -0.00   0.00     0.00  -0.00   0.00
     4   6    -0.00   0.00   0.00     0.00  -0.00  -0.00    -0.00  -0.00  -0.00
     5   6    -0.00   0.00   0.00     0.00  -0.00  -0.00     0.00  -0.00  -0.00
     6   6    -0.00   0.00  -0.00    -0.00   0.00  -0.00     0.00   0.00  -0.00
     7   6     0.00  -0.00  -0.00    -0.00   0.00   0.00    -0.00  -0.00   0.00
     8   6    -0.00  -0.00  -0.00     0.00   0.00   0.00    -0.00   0.00   0.00
     9   6    -0.05  -0.02  -0.01     0.05   0.02   0.01    -0.01   0.02  -0.06
    10   6    -0.05   0.02  -0.01    -0.05   0.02  -0.01     0.01   0.02   0.06
    11   1    -0.00  -0.00  -0.00    -0.00  -0.00  -0.00    -0.00   0.00  -0.00
    12   1    -0.00   0.00   0.00    -0.00   0.00  -0.00     0.00  -0.00  -0.01
    13   1    -0.00   0.03  -0.01    -0.00   0.03  -0.01     0.00   0.06  -0.03
    14   1    -0.00  -0.03  -0.01     0.00   0.03   0.01    -0.00   0.06   0.03
    15   1    -0.00  -0.00   0.00     0.00   0.00   0.00    -0.00  -0.00   0.01
    16   1    -0.00  -0.00   0.01    -0.00  -0.00   0.01    -0.01  -0.01   0.02
    17   1    -0.00   0.00  -0.00     0.00  -0.00   0.00     0.00   0.00   0.00
    18   1    -0.00   0.00   0.01     0.00  -0.00  -0.01     0.01  -0.01  -0.02
    19   1     0.59   0.24   0.30    -0.58  -0.23  -0.29     0.10   0.05   0.04
    20   1    -0.03   0.05  -0.12     0.03  -0.05   0.11     0.08  -0.30   0.62
    21   1     0.58  -0.23   0.29     0.59  -0.24   0.30    -0.10   0.05  -0.04
    22   1    -0.03  -0.05  -0.12    -0.03  -0.05  -0.11    -0.08  -0.30  -0.62
                     52                     53                     54
                      A                      A                      A
 Frequencies --   3078.3267              3102.9431              3113.0028
 Red. masses --      1.0905                 1.0884                 1.0881
 Frc consts  --      6.0885                 6.1743                 6.2126
 IR Inten    --     43.7524                12.4548                61.3019
  Atom  AN      X      Y      Z        X      Y      Z        X      Y      Z
     1   6    -0.00   0.00  -0.00    -0.00   0.00  -0.00     0.00   0.00   0.00
     2   6    -0.00  -0.00   0.00    -0.00  -0.00   0.00     0.00   0.00  -0.00
     3   6    -0.00  -0.00   0.00     0.00   0.05  -0.03    -0.00  -0.05   0.03
     4   6    -0.00   0.00   0.00     0.00  -0.05  -0.03     0.00  -0.05  -0.03
     5   6    -0.00   0.00   0.00    -0.00   0.00   0.00    -0.00   0.00   0.00
     6   6    -0.00  -0.00   0.00     0.00   0.00  -0.00    -0.00  -0.00   0.00
     7   6    -0.00  -0.00  -0.00    -0.00  -0.00  -0.00    -0.00   0.00  -0.00
     8   6    -0.00   0.00   0.00     0.00  -0.00  -0.00     0.00  -0.00  -0.00
     9   6    -0.01   0.02  -0.06    -0.00  -0.00  -0.00    -0.00  -0.00   0.00
    10   6    -0.01  -0.02  -0.06    -0.00   0.00  -0.00     0.00  -0.00  -0.00
    11   1     0.00   0.00   0.00     0.00  -0.00   0.00    -0.00   0.00  -0.00
    12   1     0.00  -0.00   0.00     0.02   0.00  -0.03    -0.02  -0.00   0.04
    13   1     0.00   0.02  -0.01    -0.02  -0.63   0.32     0.02   0.62  -0.32
    14   1     0.00  -0.02  -0.01    -0.02   0.63   0.32    -0.02   0.62   0.32
    15   1     0.00   0.00   0.00     0.02  -0.00  -0.03     0.02  -0.00  -0.04
    16   1     0.02   0.01  -0.02    -0.00  -0.00   0.01     0.01   0.01  -0.01
    17   1     0.00  -0.00   0.00     0.00   0.00   0.00     0.00   0.00   0.00
    18   1     0.02  -0.01  -0.02    -0.00   0.00   0.01    -0.01   0.01   0.01
    19   1     0.10   0.05   0.04     0.03   0.01   0.01     0.02   0.01   0.01
    20   1     0.08  -0.30   0.62     0.00  -0.01   0.02    -0.01   0.03  -0.06
    21   1     0.10  -0.05   0.04     0.03  -0.01   0.01    -0.02   0.01  -0.01
    22   1     0.08   0.30   0.62     0.00   0.01   0.02     0.01   0.03   0.06
                     55                     56                     57
                      A                      A                      A
 Frequencies --   3182.9977              3184.6896              3210.0040
 Red. masses --      1.0885                 1.0888                 1.0968
 Frc consts  --      6.4977                 6.5065                 6.6586
 IR Inten    --     17.0876                14.1417                15.7338
  Atom  AN      X      Y      Z        X      Y      Z        X      Y      Z
     1   6     0.00   0.05   0.02    -0.00  -0.05  -0.02    -0.00   0.02   0.01
     2   6     0.00  -0.00  -0.01    -0.00   0.00   0.01     0.00  -0.00  -0.01
     3   6     0.00   0.00  -0.00    -0.00  -0.00   0.00    -0.00  -0.00   0.00
     4   6     0.00  -0.00  -0.00     0.00  -0.00  -0.00    -0.00   0.00   0.00
     5   6     0.00   0.00  -0.01     0.00   0.00  -0.01     0.00   0.00  -0.01
     6   6    -0.01  -0.01   0.01     0.01   0.01  -0.01     0.03   0.03  -0.04
     7   6     0.00  -0.05   0.02     0.00  -0.05   0.02    -0.00  -0.02   0.01
     8   6    -0.01   0.01   0.01    -0.01   0.01   0.01     0.03  -0.03  -0.04
     9   6     0.00  -0.00   0.00     0.00  -0.00   0.00     0.00   0.00  -0.00
    10   6     0.00   0.00   0.00    -0.00  -0.00  -0.00     0.00  -0.00  -0.00
    11   1    -0.01  -0.61  -0.19     0.01   0.61   0.19    -0.00  -0.23  -0.08
    12   1    -0.05   0.01   0.10     0.04  -0.01  -0.09    -0.06   0.01   0.13
    13   1    -0.00  -0.01   0.00     0.00   0.01  -0.00     0.00  -0.00  -0.00
    14   1    -0.00   0.01   0.00    -0.00   0.01   0.00     0.00   0.00  -0.00
    15   1    -0.05  -0.01   0.10    -0.04  -0.01   0.09    -0.06  -0.01   0.13
    16   1     0.13   0.15  -0.18    -0.14  -0.15   0.19    -0.33  -0.35   0.43
    17   1    -0.01   0.61  -0.19    -0.01   0.61  -0.19    -0.00   0.23  -0.08
    18   1     0.14  -0.15  -0.18     0.14  -0.15  -0.19    -0.32   0.35   0.43
    19   1    -0.00   0.00   0.00    -0.00  -0.00  -0.00    -0.00  -0.00  -0.00
    20   1    -0.00   0.00  -0.01    -0.00   0.01  -0.01     0.00  -0.01   0.02
    21   1    -0.00  -0.00   0.00     0.00  -0.00   0.00    -0.00   0.00  -0.00
    22   1    -0.00  -0.00  -0.01     0.00   0.01   0.01     0.00   0.01   0.02
                     58                     59                     60
                      A                      A                      A
 Frequencies --   3210.2293              3233.4531              3234.6106
 Red. masses --      1.0972                 1.0964                 1.0974
[...]
 159424,-0.00049742,0.00010270,0.00046541,-0.00114447,-0.00343862,0.003
 41655,0.00109413,0.00036623,0.00052585,0.00228211,0.04711865,-0.000412
 01,0.00561860,-0.00283083,-0.12073734,0.01668022,-0.29853031,-0.006211
 93,-0.00467145,-0.00537847,0.00039888,-0.00012560,-0.00036914,-0.00099
 359,0.00081250,-0.00024446,-0.00223441,-0.00009702,-0.00094560,0.00029
 174,-0.00034326,0.00113804,0.00147552,-0.00084421,-0.00160843,-0.00057
 414,-0.00038791,-0.00027678,0.00023529,0.00091108,-0.00079690,0.000789
 50,-0.00052615,-0.00037179,0.12799750,-0.01830726,0.30967678,0.0031071
 6,-0.00000026,0.00124333,-0.00115369,-0.00442282,0.00222122,-0.0390691
 3,0.00361576,-0.01236170,-0.00862518,0.01858416,0.01621415,-0.00311680
 ,-0.00396829,0.00013457,-0.00332850,0.00078934,-0.00469160,-0.00064697
 ,0.00112424,-0.00131694,-0.00059208,0.00102787,0.00145062,0.00207088,0
 .00052351,0.00070766,0.00050491,-0.02082544,-0.00681595,0.00010463,-0.
 00023038,0.00007064,-0.00092471,0.00014981,0.00074965,0.04832965,0.000
 17158,-0.00399007,0.00179774,-0.00112393,-0.01703241,-0.01370161,-0.00
 203216,-0.26259136,-0.10949918,-0.00094904,-0.00010683,0.00071035,-0.0
 0035281,0.00066998,-0.00010610,0.00047374,-0.00053033,0.00073812,-0.00
 010064,0.00067632,0.00020977,-0.00021343,-0.00032231,0.00050284,0.0000
 6748,-0.00006982,-0.00027870,0.00107687,0.00064992,0.00119533,-0.00126
 146,-0.00048008,-0.00020010,-0.00017199,0.00079982,0.00064127,0.004890
 84,0.28078199,-0.00130973,0.00320244,-0.00339265,0.00201199,0.02050242
 ,0.01162141,-0.01111387,-0.11357484,-0.10115476,0.00413510,-0.01280121
 ,-0.00975614,0.00247345,0.00133658,-0.00005543,-0.00319935,-0.00104438
 ,-0.00215313,-0.00022821,-0.00026944,-0.00055904,-0.00001464,0.0008573
 7,-0.00022930,-0.00081903,-0.00013177,0.00024338,0.00447776,-0.0147473
 2,-0.00626423,0.00103082,0.00054788,0.00027254,0.00056661,-0.00138918,
 0.00004629,0.00372191,0.11787576,0.10929306,-0.00064711,-0.00112448,-0
 .00131702,-0.00311671,0.00396829,0.00013416,-0.00862517,-0.01858254,0.
 01621623,-0.03906896,-0.00361341,-0.01236327,-0.00115353,0.00442308,0.
 00222074,-0.00059223,-0.00102789,0.00145093,0.00310699,0.00000056,0.00
 124315,-0.00332857,-0.00078973,-0.00469139,0.00050448,0.02082482,-0.00
 681834,0.00207091,-0.00052343,0.00070772,0.00036495,-0.00020960,-0.000
 33632,0.00016283,-0.00025023,0.00006250,0.00148320,0.00004310,-0.00060
 858,0.04833033,0.00010060,0.00067631,-0.00020997,0.00035304,0.00066991
 ,0.00010602,0.00094933,-0.00010578,-0.00071111,0.00203455,-0.26256717,
 0.10951589,0.00112447,-0.01703318,0.01370456,0.00021344,-0.00032250,-0
 .00050281,-0.00017166,-0.00399055,-0.00179767,-0.00047412,-0.00053027,
 -0.00073831,-0.00107641,0.00065158,-0.00119610,-0.00006751,-0.00006981
 ,0.00027875,-0.00005971,0.00006201,0.00004893,0.00004327,-0.00002876,-
 0.00003796,-0.00004316,0.00101387,0.00007675,-0.00489419,0.28075629,-0
 .00022818,0.00026934,-0.00055903,0.00247342,-0.00133672,-0.00005524,0.
 00413519,0.01280048,-0.00975775,-0.01111620,0.11359164,-0.10117789,0.0
 0201224,-0.02049950,0.01162196,-0.00001463,-0.00085742,-0.00022926,-0.
 00130975,-0.00320235,-0.00339203,-0.00319923,0.00104403,-0.00215306,0.
 00447746,0.01474657,-0.00626569,-0.00081911,0.00013183,0.00024338,-0.0
 0015333,0.00004895,0.00014489,-0.00007920,0.00016822,-0.00000752,-0.00
 060859,-0.00007686,-0.00000074,0.00372450,-0.11789353,0.10931782,-0.00
 117060,-0.00101625,-0.00328774,0.00253663,0.00233738,0.00135647,-0.001
 41136,-0.00108123,0.00143154,0.00253792,0.00029637,0.00174498,-0.07178
 891,0.00249296,-0.11902239,-0.00375857,-0.00115579,0.00518756,-0.00497
 325,-0.00307905,-0.01430615,0.00134254,0.00419736,0.00030803,0.0011573
 3,-0.00019201,-0.00125752,0.00039658,-0.00048192,-0.00009342,0.0000283
 1,-0.00001958,-0.00009364,-0.00041720,0.00018884,0.00006981,0.00016283
 ,-0.00004326,-0.00007920,-0.00092472,0.00017204,0.00056659,0.07772756,
 -0.00027807,-0.00022173,-0.00102919,0.00110541,0.00003144,0.00083627,-
 0.00070484,-0.00072824,-0.00058879,-0.01036668,0.00545295,-0.01832430,
 0.00510861,-0.05489349,-0.01924939,-0.00107457,-0.00053983,0.00159449,
 0.00509866,0.00818874,0.01901231,0.00269885,-0.00329413,0.00300075,0.0
 0114448,-0.00343901,-0.00341629,0.00049742,0.00010270,-0.00046545,0.00
 004207,-0.00000147,0.00000001,-0.00018884,0.00003882,0.00003696,0.0002
 5027,-0.00002878,-0.00016825,-0.00014977,0.00079994,0.00138911,-0.0022
 6943,0.04712173,0.00029180,0.00034341,0.00113826,-0.00099369,-0.000812
 62,-0.00024457,0.00039905,0.00012566,-0.00036919,-0.00621081,0.0046704
 3,-0.00537685,-0.12073817,-0.01670589,-0.29853072,0.00147585,0.0008442
 6,-0.00160894,-0.00041182,-0.00561964,-0.00283164,-0.00223451,0.000097
 10,-0.00094611,0.00023518,-0.00091070,-0.00079646,-0.00057425,0.000387
 84,-0.00027675,0.00000013,-0.00000109,0.00002045,0.00006985,-0.0000369
 7,0.00003831,0.00006247,0.00003795,-0.00000751,0.00074967,-0.00064133,
 0.00004623,0.12799689,0.01833464,0.30967672,-0.00093956,-0.00635457,-0
 .00337448,0.00278592,0.00021096,-0.00471764,-0.00078167,-0.00039425,-0
 .00121971,0.00053504,0.00008793,0.00041689,-0.00020324,0.00017726,-0.0
 0062912,-0.10550270,-0.08088268,-0.11216762,0.00053261,-0.00057007,0.0
 0052233,-0.00014589,-0.00005025,-0.00057231,0.00017593,0.00058068,0.00
 001589,0.00275992,0.00293325,0.00395310,-0.00253300,0.00075049,0.00164
 971,0.00029738,-0.00113565,-0.00032076,0.00044123,-0.00011561,-0.00074
 922,-0.00004559,-0.00011582,-0.00007509,0.00000766,-0.00014277,0.00021
 541,0.10300044,0.00719404,0.01022190,0.00847110,0.00065973,-0.00099536
 ,0.00319947,0.00133561,-0.00551338,-0.00039186,0.00041299,-0.00004513,
 -0.00018193,0.00023627,-0.00017653,-0.00010124,-0.07982077,-0.14207447
 ,-0.10679455,-0.00014354,0.00026305,-0.00010881,-0.00024301,-0.0000814
 0,0.00030987,-0.00003679,0.00014403,-0.00002203,-0.01421426,-0.0045820
 7,-0.01727940,-0.00008270,0.00022000,-0.00113162,0.00012888,0.00089805
 ,0.00028181,-0.00156733,0.00000325,-0.00088207,0.00003608,0.00004637,-
 0.00004943,-0.00012894,-0.00001705,0.00013797,0.08564929,0.14117128,-0
 .01057729,-0.01777442,-0.00798176,-0.00309163,0.00210321,-0.00230254,0
 .00060992,0.00207869,0.00032645,-0.00009896,0.00000699,-0.00028817,0.0
 0006068,0.00008193,0.00069653,-0.10748430,-0.10249838,-0.17991408,-0.0
 0032604,0.00021024,-0.00033106,0.00014122,0.00018671,0.00035387,-0.000
 05185,-0.00034362,0.00001734,0.00236836,0.00312988,0.00245713,0.001975
 12,0.00011452,-0.00031725,-0.00084444,-0.00065033,-0.00017958,-0.00009
 639,0.00000149,0.00079756,-0.00001911,0.00006946,0.00009989,-0.0001178
 4,0.00001052,0.00002601,0.11758545,0.11414379,0.18605819,0.00036055,-0
 .00014502,0.00037984,-0.00030882,-0.00005077,0.00010028,-0.00008638,-0
 .00131035,-0.00049578,0.00351123,0.00353398,-0.00502130,0.00120914,0.0
 1470531,0.00597545,0.00056013,0.00005887,-0.00071241,-0.04156524,0.003
 85567,-0.00447494,0.00322466,-0.01268149,-0.00328174,0.00463168,0.0002
 2511,-0.00593684,-0.00004806,0.00002885,0.00001896,-0.00014634,-0.0000
 3351,0.00012182,0.00002830,-0.00004207,0.00000014,0.00036491,0.0000596
 9,-0.00015331,0.00010461,0.00126156,0.00103069,-0.00181636,-0.00109404
 ,0.00078947,-0.00010780,0.00002297,0.00002236,0.03262866,-0.00007211,-
 0.00020966,-0.00013767,-0.00017082,0.00024445,-0.00032362,-0.00040950,
 -0.00047103,0.00028421,0.00166864,-0.00207497,0.00116682,-0.00315168,-
 0.01158387,-0.01012082,-0.00006651,0.00036220,0.00036691,0.00726774,-0
 .31261960,-0.08075696,0.00183265,-0.00359583,0.00136173,0.00159908,0.0
 0042271,-0.00151123,0.00001223,-0.00005169,-0.00006481,0.00003352,0.00
 015660,-0.00006509,0.00001956,-0.00000147,0.00000110,0.00020958,0.0000
 6200,-0.00004895,0.00023038,-0.00048008,-0.00054777,-0.00018706,0.0003
 6618,0.00052607,0.00013991,0.00000659,-0.00002881,-0.00794450,0.329576
 83,-0.00014058,-0.00007773,-0.00004706,0.00029431,-0.00008310,-0.00002
 560,0.00048153,0.00097652,0.00004646,-0.00462368,0.00203559,0.00026051
 ,0.00147808,0.01296547,0.00991370,-0.00018150,-0.00001549,0.00051747,-
 0.00678000,-0.07873270,-0.08179142,0.00125588,-0.02454766,0.00190839,-
 0.00384793,-0.00168134,-0.00228374,0.00009826,-0.00002905,-0.00009310,
 0.00012181,0.00006507,-0.00007399,-0.00009363,-0.00000001,0.00002044,-
 0.00033634,-0.00004892,0.00014489,0.00007062,0.00020015,0.00027255,0.0
 0142667,-0.00052590,-0.00037177,0.00000967,-0.00003324,-0.00001925,0.0
 0916086,0.08988802,0.07210997,0.00053253,0.00057004,0.00052219,-0.0002
 0312,-0.00017736,-0.00062892,0.00053510,-0.00008789,0.00041693,-0.0007
 8145,0.00039428,-0.00121974,0.00278610,-0.00021153,-0.00471783,-0.0001
 4588,0.00005020,-0.00057217,-0.00093982,0.00635463,-0.00337565,-0.1055
 1021,0.08087382,-0.11217873,0.00275961,-0.00293258,0.00395261,0.000175
 99,-0.00058073,0.00001589,-0.00010778,-0.00013990,0.00000968,0.0000076
 3,0.00014279,0.00021538,-0.00004559,0.00011578,-0.00007509,0.00044111,
 0.00011553,-0.00074923,0.00029725,0.00113567,-0.00032089,0.00004690,0.
 00002469,-0.00003062,-0.00253304,-0.00075043,0.00164990,0.10300827,0.0
 0014351,0.00026304,0.00010876,-0.00023622,-0.00017655,0.00010135,-0.00
 041293,-0.00004511,0.00018190,-0.00133544,-0.00551348,0.00039241,-0.00
 066003,-0.00099597,-0.00319968,0.00024305,-0.00008143,-0.00030984,-0.0
 0719550,0.01022282,-0.00847299,0.07981279,-0.14204977,0.10678678,0.014
 21481,-0.00458041,0.01728010,0.00003679,0.00014404,0.00002201,-0.00002
 297,0.00000660,0.00003324,0.00012890,-0.00001706,-0.00013794,-0.000036
 08,0.00004636,0.00004943,0.00156734,0.00000337,0.00088209,-0.00012898,
 0.00089812,-0.00028192,-0.00002469,0.00003663,0.00000947,0.00008283,0.
 00022008,0.00113161,-0.08564036,0.14114441,-0.00032601,-0.00021027,-0.
 00033101,0.00006062,-0.00008179,0.00069643,-0.00009898,-0.00000700,-0.
 00028824,0.00061003,-0.00207818,0.00032664,-0.00309168,-0.00210330,-0.
 00230176,0.00014120,-0.00018668,0.00035384,-0.01057703,0.01777214,-0.0
 0798231,-0.10749600,0.10249075,-0.17993187,0.00236711,-0.00312917,0.00
 245582,-0.00005189,0.00034367,0.00001734,0.00002237,0.00002881,-0.0000
 1926,-0.00011782,-0.00001053,0.00002600,-0.00001911,-0.00006944,0.0000
 9989,-0.00009650,-0.00000141,0.00079748,-0.00084447,0.00065011,-0.0001
 7955,-0.00003062,-0.00000947,0.00002549,0.00197521,-0.00011449,-0.0003
 1746,0.11759822,-0.11413513,0.18607731,-0.00048179,0.00010637,-0.00023
 313,-0.00031332,0.00143248,-0.00121277,-0.00324511,-0.00141337,-0.0005
 2215,-0.01939921,-0.00770934,0.00832101,0.00000967,0.00165761,-0.00001
 491,-0.00065914,0.00010755,-0.00019000,0.00094100,0.00043466,0.0008473
 6,0.00338321,-0.00194466,-0.00114879,-0.21842488,-0.06925462,0.0842113
 9,-0.00062113,-0.00093725,0.00050985,-0.00001186,-0.00009375,0.0000074
 5,0.00019902,-0.00001174,0.00000836,0.00033415,0.00007861,-0.00014858,
 0.00091848,0.00065251,0.00017679,-0.00001660,-0.00008798,-0.00017850,0
 .00010960,-0.00004089,-0.00011022,-0.00020749,-0.00015054,0.00004334,-
 0.00044035,-0.00053951,-0.00002348,0.24145152,-0.00017344,0.00028281,-
 0.00024351,-0.00062423,-0.00033394,0.00040698,0.00115479,0.00017386,0.
 00129895,0.00751850,0.00211565,-0.00271143,-0.00063107,0.00039229,0.00
 041479,0.00010738,-0.00041721,-0.00052542,0.00196496,-0.00244345,0.003
 25050,-0.02677519,-0.01782227,0.00763897,-0.07502021,-0.06768460,0.032
 33921,0.00048319,0.00007688,-0.00015377,0.00002256,0.00000553,0.000023
 14,0.00014276,-0.00006914,0.00007516,-0.00016793,0.00015345,0.00021118
 ,-0.00014140,0.00032131,-0.00031912,-0.00001219,0.00003445,0.00001446,
 -0.00015155,0.00006747,0.00008971,0.00129268,0.00020638,-0.00084959,0.
 00069612,-0.00025842,0.00000237,0.07880139,0.07991520,-0.00066282,-0.0
 0087379,-0.00176058,0.00117088,0.00207981,-0.00030768,-0.00212184,-0.0
 0077347,0.00020195,-0.01538605,-0.00692473,0.00491038,0.00172263,-0.00
 108752,0.00160682,-0.00132430,-0.00034093,0.00168013,-0.00277204,0.000
 64357,-0.00242271,0.00141153,0.00409291,0.00051444,0.08586377,0.029516
 07,-0.08480423,0.00012118,-0.00029324,-0.00007911,0.00005969,-0.000005
 91,-0.00007646,-0.00042883,0.00010525,0.00043035,0.00002228,0.00017762
 ,0.00007913,0.00063217,0.00013713,0.00094170,0.00000921,0.00005465,-0.
 00017619,-0.00006716,-0.00000127,0.00006504,0.00030479,0.00006299,-0.0
 0022931,-0.00016505,0.00041543,0.00020671,-0.09248967,-0.03625834,0.09
 090576,0.00033596,0.00002553,0.00038772,-0.00054707,-0.00070305,0.0000
 5305,0.00046423,-0.00056041,-0.00187272,0.00143751,-0.01226014,-0.0182
 8410,-0.00372404,0.00209791,-0.00394176,0.00047252,0.00024640,-0.00019
 622,0.00184268,-0.00008704,0.00055718,-0.00207213,-0.00244171,0.000882
 20,-0.05033752,0.01830632,0.03198727,-0.00002452,0.00034611,0.00007662
 ,0.00000803,0.00004596,0.00003071,-0.00027004,-0.00039070,0.00005135,-
 0.00020542,0.00033147,-0.00004008,-0.00011400,0.00029235,-0.00005567,0
 .00015396,-0.00112690,-0.00068280,0.00007455,0.00000683,-0.00001343,0.
 00019949,-0.00015795,-0.00012543,-0.00006739,-0.00003137,0.00012251,-0
 .00348821,0.01134419,0.02409994,0.05587640,-0.00047840,-0.00012545,-0.
 00059346,0.00027490,0.00004539,-0.00036176,-0.00018116,0.00045760,0.00
 038316,-0.00162237,0.00323852,0.00726514,0.00239825,-0.00089266,0.0006
 4490,-0.00020983,-0.00035695,0.00035136,0.00070162,-0.00591481,-0.0005
 3063,0.00213082,-0.00955376,-0.02912981,0.01555275,-0.09399687,-0.0988
 2583,0.00002645,-0.00008115,0.00009513,0.00002730,-0.00001062,-0.00001
 202,-0.00032845,-0.00016768,0.00043728,-0.00009562,0.00004751,0.000085
 63,-0.00005044,-0.00007374,0.00000723,-0.00007491,0.00036559,0.0000026
 5,-0.00005055,0.00001622,0.00005606,-0.00177593,-0.00053073,-0.0006265
 7,-0.00015482,0.00064904,0.00099474,-0.00095769,0.00499249,0.00947194,
 -0.01518841,0.10176188,0.00002555,-0.00023843,-0.00048613,0.00053589,0
 .00080292,0.00098242,0.00162047,-0.00030618,-0.00033439,0.00371967,-0.
 00792842,-0.01337973,-0.00201258,0.00013163,-0.00187443,0.00039067,-0.
 00034241,0.00054475,0.00013700,0.00104517,-0.00109516,-0.00062332,0.00
 195236,0.00495735,0.02850466,-0.10023451,-0.25550623,0.00028490,0.0006
 3170,-0.00007250,0.00006313,-0.00000282,-0.00005782,-0.00014105,0.0000
 9459,0.00044862,-0.00055767,0.00045561,0.00051741,-0.00042645,0.000225
 79,-0.00048433,-0.00042540,-0.00095255,-0.00010871,-0.00020943,0.00006
 448,0.00013883,0.00007365,0.00005366,0.00019257,-0.00007029,-0.0007938
 8,0.00006462,0.00232329,-0.00491194,-0.01151366,-0.03313535,0.11027384
 ,0.27702166,0.00094113,-0.00043446,0.00084756,0.00000969,-0.00165768,-
 0.00001477,-0.01939911,0.00770943,0.00832005,-0.00324516,0.00141331,-0
 .00052224,-0.00031336,-0.00143257,-0.00121265,0.00338218,0.00194513,-0
 .00114863,-0.00048178,-0.00010645,-0.00023304,-0.00065907,-0.00010761,
 -0.00019005,-0.00062115,0.00093729,0.00050981,-0.21843144,0.06925820,0
 .08420549,-0.00020746,0.00015053,0.00004329,-0.00001659,0.00008796,-0.
 00017852,0.00091845,-0.00065247,0.00017683,0.00033417,-0.00007862,-0.0
 0014860,0.00019903,0.00001175,0.00000836,-0.00044033,0.00053949,-0.000
 02354,-0.00001186,0.00009375,0.00000744,0.00010961,0.00004089,-0.00011
 024,-0.00001027,0.00013470,-0.00001627,-0.00002729,-0.00000489,-0.0001
 6038,0.24145866,-0.00196496,-0.00244375,-0.00325053,0.00063115,0.00039
 241,-0.00041461,-0.00752062,0.00211652,0.00271190,-0.00115506,0.000173
 75,-0.00129905,0.00062438,-0.00033428,-0.00040697,0.02677580,-0.017822
 32,-0.00763705,0.00017344,0.00028294,0.00024331,-0.00010746,-0.0004171
 9,0.00052558,-0.00048321,0.00007695,0.00015379,0.07502386,-0.06768567,
 -0.03233748,-0.00129262,0.00020642,0.00084945,0.00001220,0.00003444,-0
 .00001449,0.00014150,0.00032127,0.00031918,0.00016793,0.00015342,-0.00
 021121,-0.00014280,-0.00006917,-0.00007511,-0.00069612,-0.00025846,-0.
 00000234,-0.00002255,0.00000552,-0.00002315,0.00015152,0.00006747,-0.0
 0008971,-0.00013472,0.00022678,-0.00019436,-0.00003400,0.00006451,-0.0
 0001338,-0.07880538,0.07991672,-0.00277180,-0.00064364,-0.00242235,0.0
 0172230,0.00108775,0.00160681,-0.01538567,0.00692457,0.00490945,-0.002
 12177,0.00077348,0.00020195,0.00117081,-0.00207982,-0.00030745,0.00140
 934,-0.00409135,0.00051540,-0.00066281,0.00087359,-0.00176060,-0.00132
 416,0.00034102,0.00167996,0.00012117,0.00029325,-0.00007912,0.08585728
 ,-0.02951429,-0.08479736,0.00030490,-0.00006303,-0.00022936,0.00000926
 ,-0.00005469,-0.00017620,0.00063220,-0.00013708,0.00094165,0.00002227,
 -0.00017765,0.00007918,-0.00042884,-0.00010522,0.00043036,-0.00016497,
 -0.00041538,0.00020674,0.00005969,0.00000590,-0.00007646,-0.00006717,0
 .00000127,0.00006505,-0.00001627,0.00019433,-0.00014235,0.00001596,0.0
 0000380,-0.00003013,-0.09248293,0.03625586,0.09089773,0.00184273,0.000
 08735,0.00055713,-0.00372384,-0.00209834,-0.00394148,0.00143728,0.0122
 5843,-0.01828486,0.00046414,0.00056023,-0.00187279,-0.00054709,0.00070
 308,0.00005296,-0.00207217,0.00244198,0.00088099,0.00033593,-0.0000255
 0,0.00038769,0.00047249,-0.00024639,-0.00019617,-0.00002451,-0.0003460
 9,0.00007666,-0.05033734,-0.01830302,0.03198823,0.00019943,0.00015796,
 -0.00012547,0.00015396,0.00112681,-0.00068292,-0.00011395,-0.00029236,
 -0.00005557,-0.00020547,-0.00033147,-0.00004007,-0.00027004,0.00039070
 ,0.00005130,-0.00006741,0.00003136,0.00012254,0.00000803,-0.00004596,0
 .00003071,0.00007454,-0.00000683,-0.00001343,-0.00002729,0.00003399,0.
 00001595,0.00001231,0.00006136,0.00008305,-0.00348804,-0.01134230,0.02
 410121,0.05587633,-0.00070133,-0.00591492,0.00053116,-0.00239851,-0.00
 089285,-0.00064515,0.00162274,0.00323901,-0.00726723,0.00018128,0.0004
 5757,-0.00038327,-0.00027494,0.00004527,0.00036191,-0.00213083,-0.0095
 5117,0.02913102,0.00047846,-0.00012535,0.00059339,0.00020986,-0.000356
 96,-0.00035129,-0.00002641,-0.00008121,-0.00009513,-0.01554971,-0.0939
 7979,0.09881177,0.00177588,-0.00053060,0.00062674,0.00007486,0.0003657
 2,-0.00000273,0.00005043,-0.00007375,-0.00000725,0.00009555,0.00004747
 ,-0.00008558,0.00032844,-0.00016775,-0.00043718,0.00015481,0.00064902,
 -0.00099478,-0.00002730,-0.00001062,0.00001202,0.00005052,0.00001621,-
 0.00005604,0.00000487,0.00006451,-0.00000380,-0.00006136,0.00006565,-0
 .00000722,0.00095769,0.00499173,-0.00947267,0.01518502,0.10174281,0.00
 013712,-0.00104470,-0.00109511,-0.00201251,-0.00013178,-0.00187441,0.0
 0371953,0.00792721,-0.01338003,0.00162043,0.00030618,-0.00033439,0.000
 53595,-0.00080286,0.00098248,-0.00062307,-0.00195108,0.00495480,0.0000
 2553,0.00023840,-0.00048620,0.00039065,0.00034248,0.00054472,0.0002849
 0,-0.00063170,-0.00007243,0.02850520,0.10022042,-0.25552375,0.00007346
 ,-0.00005359,0.00019254,-0.00042540,0.00095252,-0.00010882,-0.00042641
 ,-0.00022586,-0.00048426,-0.00055766,-0.00045559,0.00051747,-0.0001411
 3,-0.00009450,0.00044863,-0.00007033,0.00079382,0.00006464,0.00006312,
 0.00000282,-0.00005781,-0.00020943,-0.00006448,0.00013885,-0.00016038,
 0.00001337,-0.00003013,0.00008306,0.00000723,0.00007499,0.00232302,0.0
 0491038,-0.01151288,-0.03313565,-0.11025868,0.27704111\\-0.00035511,-0
 .00039123,-0.00078025,-0.00243012,0.00093226,0.00073276,-0.00386222,-0
 .00006712,0.00286006,0.00386264,-0.00006782,-0.00286012,0.00243022,0.0
 0093228,-0.00073348,-0.00228280,-0.00021759,0.00072855,0.00035520,-0.0
 0039075,0.00078059,0.00228237,-0.00021752,-0.00072850,0.00126103,-0.00
 022039,-0.00048740,-0.00126161,-0.00022025,0.00048764,0.00016781,-0.00
 007265,-0.00014916,0.00000075,-0.00004332,-0.00001867,-0.00005423,0.00
 011132,0.00006944,0.00005417,0.00011154,-0.00006949,-0.00000059,-0.000
 04322,0.00001923,-0.00016742,-0.00000175,0.00003387,-0.00016781,-0.000
 07284,0.00014904,0.00016733,-0.00000169,-0.00003389,0.00018940,0.00001
 176,0.00013033,-0.00005587,-0.00004134,-0.00004612,-0.00018921,0.00001
 166,-0.00013046,0.00005606,-0.00004133,0.00004604\\\@


 THE LENGTH OF A MEETING IS PROPORTIONAL TO THE
 SQUARE OF THE PARTICIPANTS.
 Job cpu time:       0 days  1 hours  4 minutes 57.2 seconds.
 Elapsed time:       0 days  0 hours  0 minutes 41.6 seconds.
 File lengths (MBytes):  RWF=    182 Int=      0 D2E=      0 Chk=     11 Scr=      1
 Normal termination of Gaussian 16 at Mon Jul 28 00:20:04 2025.
