 Entering Gaussian System, Link 0=g16
 Initial command:
 /home/hongchang/data/software/Gaussian/g16/l1.exe "/home/hongchang/data/software/Gaussian/g16/scratch/Gau-1390683.inp" -scrdir="/home/hongchang/data/software/Gaussian/g16/scratch/"
 Entering Link 1 = /home/hongchang/data/software/Gaussian/g16/l1.exe PID=   1390684.
  
 Copyright (c) 1988,1990,1992,1993,1995,1998,2003,2009,2016,
            Gaussian, Inc.  All Rights Reserved.
  
 This is part of the Gaussian(R) 16 program.  It is based on
 the Gaussian(R) 09 system (copyright 2009, Gaussian, Inc.),
 the Gaussian(R) 03 system (copyright 2003, Gaussian, Inc.),
 the Gaussian(R) 98 system (copyright 1998, Gaussian, Inc.),
 the Gaussian(R) 94 system (copyright 1995, Gaussian, Inc.),
 the Gaussian 92(TM) system (copyright 1992, Gaussian, Inc.),
 the Gaussian 90(TM) system (copyright 1990, Gaussian, Inc.),
 the Gaussian 88(TM) system (copyright 1988, Gaussian, Inc.),
 the Gaussian 86(TM) system (copyright 1986, Carnegie Mellon
 University), and the Gaussian 82(TM) system (copyright 1983,
 Carnegie Mellon University). Gaussian is a federally registered
 trademark of Gaussian, Inc.
  
 This software contains proprietary and confidential information,
 including trade secrets, belonging to Gaussian, Inc.
  
 This software is provided under written license and may be
 used, copied, transmitted, or stored only in accord with that
 written license.
  
 The following legend is applicable only to US Government
 contracts under FAR:
  
                    RESTRICTED RIGHTS LEGEND
  
 Use, reproduction and disclosure by the US Government is
 subject to restrictions as set forth in subparagraphs (a)
 and (c) of the Commercial Computer Software - Restricted
 Rights clause in FAR 52.227-19.
  
 Gaussian, Inc.
 340 Quinnipiac St., Bldg. 40, Wallingford CT 06492
  
  
 ---------------------------------------------------------------
 Warning -- This program may not be used in any manner that
 competes with the business of Gaussian, Inc. or will provide
 assistance to any competitor of Gaussian, Inc.  The licensee
 of this program is prohibited from giving any competitor of
 Gaussian, Inc. access to this program.  By using this program,
 the user acknowledges that Gaussian, Inc. is engaged in the
 business of creating and licensing software in the field of
 computational chemistry and represents and warrants to the
 licensee that it is not a competitor of Gaussian, Inc. and that
 it will not use this program in any manner prohibited above.
 ---------------------------------------------------------------
  

 Cite this work as:
 Gaussian 16, Revision A.03,
 M. J. Frisch, G. W. Trucks, H. B. Schlegel, G. E. Scuseria, 
 M. A. Robb, J. R. Cheeseman, G. Scalmani, V. Barone, 
 G. A. Petersson, H. Nakatsuji, X. Li, M. Caricato, A. V. Marenich, 
 J. Bloino, B. G. Janesko, R. Gomperts, B. Mennucci, H. P. Hratchian, 
 J. V. Ortiz, A. F. Izmaylov, J. L. Sonnenberg, D. Williams-Young, 
 F. Ding, F. Lipparini, F. Egidi, J. Goings, B. Peng, A. Petrone, 
 T. Henderson, D. Ranasinghe, V. G. Zakrzewski, J. Gao, N. Rega, 
 G. Zheng, W. Liang, M. Hada, M. Ehara, K. Toyota, R. Fukuda, 
 J. Hasegawa, M. Ishida, T. Nakajima, Y. Honda, O. Kitao, H. Nakai, 
 T. Vreven, K. Throssell, J. A. Montgomery, Jr., J. E. Peralta, 
 F. Ogliaro, M. J. Bearpark, J. J. Heyd, E. N. Brothers, K. N. Kudin, 
 V. N. Staroverov, T. A. Keith, R. Kobayashi, J. Normand, 
 K. Raghavachari, A. P. Rendell, J. C. Burant, S. S. Iyengar, 
 J. Tomasi, M. Cossi, J. M. Millam, M. Klene, C. Adamo, R. Cammi, 
 J. W. Ochterski, R. L. Martin, K. Morokuma, O. Farkas, 
 J. B. Foresman, and D. J. Fox, Gaussian, Inc., Wallingford CT, 2016.
 
 ******************************************
 Gaussian 16:  ES64L-G16RevA.03 25-Dec-2016
                28-Jul-2025 
 ******************************************
 %nprocshared=96
 Will use up to   96 processors via shared memory.
 %mem=600GB
 %chk=01_02_path2_4.chk
 -----------------------------------------------------------
 # freq b3lyp/6-311g(d,p) em=gd3bj scrf(solvent=Cis-Decalin)
 -----------------------------------------------------------
 1/10=4,30=1,38=1/1,3;
 2/12=2,17=6,18=5,40=1/2;
 3/5=4,6=6,7=101,11=2,25=1,30=1,70=2201,71=2,72=99,74=-5,124=41,140=1/1,2,3;
 4//1;
 5/5=2,38=5,53=99,98=1/2;
 8/6=4,10=90,11=11/1;
 11/6=1,8=1,9=11,15=111,16=1/1,2,10;
 10/6=1/2;
 6/7=2,8=2,9=2,10=2,28=1/1;
 7/8=1,10=1,25=1/1,2,3,16;
 1/10=4,30=1/3;
 99//99;
 -------------
 01_02_path2_4
 -------------
 Symbolic Z-matrix:
 Charge =  0 Multiplicity = 1
 C                    -1.35859  -1.1571    0.67036 
 C                    -0.70829  -0.11037   1.35617 
 C                    -0.74493   1.06765   0.5247 
 C                     0.74491   1.0676   -0.5248 
 C                     0.70827  -0.1105   -1.35614 
 C                    -1.90508  -0.68839  -0.49852 
 C                     1.35862  -1.15715  -0.67025 
 C                     1.90512  -0.68831   0.49857 
 C                     1.87441   0.81441   0.47691 
 C                    -1.87442   0.81433  -0.477 
 H                    -1.35341  -2.19321   0.98473 
 H                    -0.25522  -0.17973   2.33318 
 H                    -0.69082   2.04327   1.0008 
 H                     0.69078   2.04317  -1.001 
 H                     0.25521  -0.17997  -2.33315 
 H                    -2.43636  -1.27663  -1.234 
 H                     1.35344  -2.19329  -0.98451 
 H                     2.43643  -1.27647   1.23411 
 H                     2.81816   1.1987    0.06237 
 H                     1.72503   1.28796   1.44869 
 H                    -2.81819   1.19864  -0.0625 
 H                    -1.72505   1.2878   -1.44882 
 

 GradGradGradGradGradGradGradGradGradGradGradGradGradGradGradGradGradGrad
 Berny optimization.
 Initialization pass.
 Trust Radius=3.00D-01 FncErr=1.00D-07 GrdErr=1.00D-07 EigMax=2.50D+02 EigMin=1.00D-04
 Number of steps in this run=      2 maximum allowed number of steps=      2.
 GradGradGradGradGradGradGradGradGradGradGradGradGradGradGradGradGradGrad

                          Input orientation:                          
 ---------------------------------------------------------------------
 Center     Atomic      Atomic             Coordinates (Angstroms)
 Number     Number       Type             X           Y           Z
 ---------------------------------------------------------------------
      1          6           0       -1.358594   -1.157098    0.670364
      2          6           0       -0.708294   -0.110367    1.356166
      3          6           0       -0.744932    1.067647    0.524704
      4          6           0        0.744905    1.067599   -0.524803
      5          6           0        0.708274   -0.110501   -1.356143
      6          6           0       -1.905082   -0.688388   -0.498516
      7          6           0        1.358615   -1.157150   -0.670247
      8          6           0        1.905119   -0.688310    0.498570
      9          6           0        1.874411    0.814405    0.476910
     10          6           0       -1.874422    0.814330   -0.476996
     11          1           0       -1.353405   -2.193211    0.984726
     12          1           0       -0.255224   -0.179733    2.333178
     13          1           0       -0.690820    2.043272    1.000795
     14          1           0        0.690776    2.043173   -1.000996
     15          1           0        0.255208   -0.179970   -2.333149
     16          1           0       -2.436364   -1.276633   -1.234002
     17          1           0        1.353444   -2.193294   -0.984505
     18          1           0        2.436427   -1.276469    1.234106
     19          1           0        2.818163    1.198702    0.062374
     20          1           0        1.725034    1.287960    1.448688
     21          1           0       -2.818188    1.198636   -0.062503
     22          1           0       -1.725050    1.287801   -1.448816
 ---------------------------------------------------------------------
                    Distance matrix (angstroms):
                    1          2          3          4          5
     1  C    0.000000
     2  C    1.410270   0.000000
     3  C    2.312420   1.442355   0.000000
     4  C    3.286702   2.652817   1.822383   0.000000
     5  C    3.077993   3.059949   2.652815   1.442355   0.000000
     6  C    1.372814   2.281722   2.340211   3.179090   2.810535
     7  C    3.029928   3.078022   3.286722   2.312423   1.410273
     8  C    3.301681   2.810590   3.179125   2.340215   2.281723
     9  C    3.791645   2.880739   2.631990   1.530791   2.361231
    10  C    2.338598   2.361229   1.530791   2.631977   2.880717
    11  H    1.082765   2.211871   3.348889   4.161065   3.750716
    12  H    2.222075   1.079183   2.250855   3.274775   3.813687
    13  H    3.285951   2.182832   1.086938   2.310994   3.485880
    14  H    4.151517   3.485878   2.310989   1.086938   2.182830
    15  H    3.546861   3.813689   3.274775   2.250855   1.079183
    16  H    2.191458   3.324962   3.383731   4.014830   3.356118
    17  H    3.341773   3.750745   4.161085   3.348891   2.211874
    18  H    3.838520   3.356183   4.014869   3.383735   3.324964
    19  H    4.833709   3.977871   3.595354   2.158788   2.859691
    20  H    4.011591   2.808018   2.646321   2.214470   3.294931
    21  H    2.866529   2.859679   2.158787   3.595348   3.977848
    22  H    3.256186   3.294934   2.214471   2.646312   2.808007
                    6          7          8          9         10
     6  C    0.000000
     7  C    3.301658   0.000000
     8  C    3.938504   1.372811   0.000000
     9  C    4.182632   2.338599   1.503185   0.000000
    10  C    1.503185   3.791650   4.182653   3.868292   0.000000
    11  H    2.183769   3.341768   3.622023   4.440994   3.384286
    12  H    3.316512   3.546883   2.879500   2.994893   3.392203
    13  H    3.344298   4.151538   3.801667   2.892227   2.257228
    14  H    3.801630   3.285951   3.344298   2.257226   2.892209
    15  H    2.879448   2.222078   3.316511   3.392202   2.994872
    16  H    1.081311   3.838484   4.711306   5.087479   2.293679
    17  H    3.622005   1.082765   2.183766   3.384286   4.441001
    18  H    4.711318   2.191455   1.081311   2.293679   5.087507
    19  H    5.117104   2.866540   2.141198   1.100087   4.739094
    20  H    4.568949   3.256180   2.200181   1.091293   4.109582
    21  H    2.141198   4.833711   5.117128   4.739102   1.100086
    22  H    2.200183   4.011601   4.568966   4.109580   1.091293
                   11         12         13         14         15
    11  H    0.000000
    12  H    2.660530   0.000000
    13  H    4.288014   2.628068   0.000000
    14  H    5.105753   4.117395   2.432278   0.000000
    15  H    4.201080   4.694161   4.117397   2.628063   0.000000
    16  H    2.633566   4.322654   4.366121   4.566663   3.107307
    17  H    3.347372   4.201102   5.105773   4.288013   2.660533
    18  H    3.907100   3.107374   4.566704   4.366120   4.322654
    19  H    5.455070   4.062307   3.729195   2.523819   3.769351
    20  H    4.670182   2.618753   2.570497   2.764234   4.314800
    21  H    3.840170   3.769346   2.523828   3.729188   4.062284
    22  H    4.263530   4.314803   2.764229   2.570476   2.618744
                   16         17         18         19         20
    16  H    0.000000
    17  H    3.907065   0.000000
    18  H    5.462202   2.633563   0.000000
    19  H    5.951296   3.840182   2.764986   0.000000
    20  H    5.575948   4.263524   2.669910   1.767700   0.000000
    21  H    2.764988   5.455070   5.951329   5.637734   4.788793
    22  H    2.669913   4.670196   5.575970   4.788780   4.505398
                   21         22
    21  H    0.000000
    22  H    1.767700   0.000000
 Stoichiometry    C10H12
 Framework group  C1[X(C10H12)]
 Deg. of freedom    60
 Full point group                 C1      NOp   1
 Largest Abelian subgroup         C1      NOp   1
 Largest concise Abelian subgroup C1      NOp   1
                         Standard orientation:                         
 ---------------------------------------------------------------------
 Center     Atomic      Atomic             Coordinates (Angstroms)
 Number     Number       Type             X           Y           Z
 ---------------------------------------------------------------------
      1          6           0        1.351146    1.169243    0.685225
      2          6           0        0.693341    0.122536    1.363868
      3          6           0        0.739114   -1.055505    0.532897
      4          6           0       -0.739094   -1.055485   -0.532928
      5          6           0       -0.693320    0.122589   -1.363852
      6          6           0        1.910451    0.700494   -0.477561
      7          6           0       -1.351159    1.169262   -0.685180
      8          6           0       -1.910483    0.700460    0.477572
      9          6           0       -1.879544   -0.802255    0.456298
     10          6           0        1.879550   -0.802223   -0.456332
     11          1           0        1.342504    2.205366    0.999478
     12          1           0        0.229556    0.191934    2.335838
     13          1           0        0.679767   -2.031115    1.008394
     14          1           0       -0.679736   -2.031074   -1.008466
     15          1           0       -0.229539    0.192026   -2.335819
     16          1           0        2.449789    1.288714   -1.207180
     17          1           0       -1.342530    2.205396   -0.999395
     18          1           0       -2.449844    1.288644    1.207204
     19          1           0       -2.818683   -1.186562    0.031423
     20          1           0       -1.740863   -1.275780    1.429675
     21          1           0        2.818700   -1.186519   -0.031476
     22          1           0        1.740870   -1.275724   -1.429721
 ---------------------------------------------------------------------
 Rotational constants (GHZ):           2.4077027           1.3474876           1.2804308
 Standard basis: 6-311G(d,p) (5D, 7F)
 There are   262 symmetry adapted cartesian basis functions of A   symmetry.
 There are   252 symmetry adapted basis functions of A   symmetry.
   252 basis functions,   416 primitive gaussians,   262 cartesian basis functions
    36 alpha electrons       36 beta electrons
       nuclear repulsion energy       523.4010903687 Hartrees.
 NAtoms=   22 NActive=   22 NUniq=   22 SFac= 1.00D+00 NAtFMM=   60 NAOKFM=F Big=F
 Integral buffers will be    131072 words long.
 Raffenetti 2 integral format.
 Two-electron integral symmetry is turned on.
 Nuclear repulsion after empirical dispersion term =      523.3554310808 Hartrees.
 Force inversion solution in PCM.
 ------------------------------------------------------------------------------
 Polarizable Continuum Model (PCM)
 =================================
 Model                : PCM.
 Atomic radii         : UFF (Universal Force Field).
 Polarization charges : Total charges.
 Charge compensation  : None.
 Solution method      : Matrix inversion.
 Cavity type          : Scaled VdW (van der Waals Surface) (Alpha=1.100).
 Cavity algorithm     : GePol (No added spheres)
                        Default sphere list used, NSphG=   22.
                        Lebedev-Laikov grids with approx.  5.0 points / Ang**2.
                        Smoothing algorithm: York/Karplus (Gamma=1.0000).
                        Polarization charges: spherical gaussians, with
                                              point-specific exponents (IZeta= 3).
                        Self-potential: point-specific (ISelfS= 7).
                        Self-field    : sphere-specific E.n sum rule (ISelfD= 2).
 1st derivatives      : Analytical E(r).r(x)/FMM algorithm (CHGder, D1EAlg=3).
                        Cavity 1st derivative terms included.
 2nd derivatives      : Analytical E(r).r(xy)/FMM algorithm (CHGder, D2EAlg=3).
                        Cavity 2nd derivative terms included.
 Solvent              : Cis-Decalin, Eps=   2.213900 Eps(inf)=   2.193361
 ------------------------------------------------------------------------------
 One-electron integrals computed using PRISM.
 NBasis=   252 RedAO= T EigKep=  5.19D-04  NBF=   252
 NBsUse=   252 1.00D-06 EigRej= -1.00D+00 NBFU=   252
 ExpMin= 1.03D-01 ExpMax= 4.56D+03 ExpMxC= 6.82D+02 IAcc=3 IRadAn=         5 AccDes= 0.00D+00
 Harris functional with IExCor=  402 and IRadAn=       5 diagonalized for initial guess.
 HarFok:  IExCor=  402 AccDes= 0.00D+00 IRadAn=         5 IDoV= 1 UseB2=F ITyADJ=14
 ICtDFT=  3500011 ScaDFX=  1.000000  1.000000  1.000000  1.000000
 FoFCou: FMM=F IPFlag=           0 FMFlag=      100000 FMFlg1=           0
         NFxFlg=           0 DoJE=T BraDBF=F KetDBF=T FulRan=T
         wScrn=  0.000000 ICntrl=       500 IOpCl=  0 I1Cent=   200000004 NGrid=           0
         NMat0=    1 NMatS0=      1 NMatT0=    0 NMatD0=    1 NMtDS0=    0 NMtDT0=    0
 Petite list used in FoFCou.
 Requested convergence on RMS density matrix=1.00D-08 within 128 cycles.
 Requested convergence on MAX density matrix=1.00D-06.
 Requested convergence on             energy=1.00D-06.
 No special actions if energy rises.
 Inv3:  Mode=1 IEnd=     7263408.
 Iteration    1 A*A^-1 deviation from unit magnitude is 3.00D-15 for   1525.
 Iteration    1 A*A^-1 deviation from orthogonality  is 2.07D-15 for   1479   1042.
 Iteration    1 A^-1*A deviation from unit magnitude is 3.00D-15 for   1532.
 Iteration    1 A^-1*A deviation from orthogonality  is 1.90D-15 for   1359    252.
 Error on total polarization charges =  0.00618
 SCF Done:  E(RB3LYP) =  -388.320311663     A.U. after   12 cycles
            NFock= 12  Conv=0.59D-08     -V/T= 2.0048
 DoSCS=F DFT=T ScalE2(SS,OS)=  1.000000  1.000000
 Range of M.O.s used for correlation:     1   252
 NBasis=   252 NAE=    36 NBE=    36 NFC=     0 NFV=     0
 NROrb=    252 NOA=    36 NOB=    36 NVA=   216 NVB=   216
 Symmetrizing basis deriv contribution to polar:
 IMax=3 JMax=2 DiffMx= 0.00D+00
 G2DrvN: will do    23 centers at a time, making    1 passes.
 Calling FoFCou, ICntrl=  3107 FMM=F I1Cent=   0 AccDes= 0.00D+00.
 NEqPCM:  Using equilibrium solvation (IEInf=0, Eps=   2.2139, EpsInf=   2.1934)
 G2PCM: DoFxE=T DoFxN=T DoGrad=T DoDP/DQ/DG/TGxP=FFFF NFrqRd=   0 IEInf=0 SqF1=F DoCFld=F IF1Alg=4.
 End of G2Drv F.D. properties file   721 does not exist.
 End of G2Drv F.D. properties file   722 does not exist.
 End of G2Drv F.D. properties file   788 does not exist.
          IDoAtm=1111111111111111111111
 NEqPCM:  Using equilibrium solvation (IEInf=0, Eps=   2.2139, EpsInf=   2.1934)
          Differentiating once with respect to electric field.
                with respect to dipole field.
          Differentiating once with respect to nuclear coordinates.
 Keep R1 ints in memory in canonical form, NReq=612588626.
          There are    69 degrees of freedom in the 1st order CPHF.  IDoFFX=6 NUNeed=     3.
     66 vectors produced by pass  0 Test12= 1.13D-14 1.45D-09 XBig12= 3.72D+02 1.75D+01.
 AX will form    66 AO Fock derivatives at one time.
     66 vectors produced by pass  1 Test12= 1.13D-14 1.45D-09 XBig12= 7.06D+01 1.39D+00.
     66 vectors produced by pass  2 Test12= 1.13D-14 1.45D-09 XBig12= 6.42D-01 1.15D-01.
     66 vectors produced by pass  3 Test12= 1.13D-14 1.45D-09 XBig12= 1.32D-03 5.48D-03.
     66 vectors produced by pass  4 Test12= 1.13D-14 1.45D-09 XBig12= 1.99D-06 2.34D-04.
     48 vectors produced by pass  5 Test12= 1.13D-14 1.45D-09 XBig12= 2.21D-09 6.47D-06.
      7 vectors produced by pass  6 Test12= 1.13D-14 1.45D-09 XBig12= 2.37D-12 2.25D-07.
      3 vectors produced by pass  7 Test12= 1.13D-14 1.45D-09 XBig12= 2.52D-15 5.26D-09.
 InvSVY:  IOpt=1 It=  1 EMax= 7.11D-15
 Solved reduced A of dimension   388 with    69 vectors.
 Isotropic polarizability for W=    0.000000      135.54 Bohr**3.
 End of Minotr F.D. properties file   721 does not exist.
 End of Minotr F.D. properties file   722 does not exist.
 End of Minotr F.D. properties file   788 does not exist.

 **********************************************************************

            Population analysis using the SCF density.

 **********************************************************************

 Orbital symmetries:
       Occupied  (A) (A) (A) (A) (A) (A) (A) (A) (A) (A) (A) (A)
                 (A) (A) (A) (A) (A) (A) (A) (A) (A) (A) (A) (A)
                 (A) (A) (A) (A) (A) (A) (A) (A) (A) (A) (A) (A)
       Virtual   (A) (A) (A) (A) (A) (A) (A) (A) (A) (A) (A) (A)
                 (A) (A) (A) (A) (A) (A) (A) (A) (A) (A) (A) (A)
                 (A) (A) (A) (A) (A) (A) (A) (A) (A) (A) (A) (A)
                 (A) (A) (A) (A) (A) (A) (A) (A) (A) (A) (A) (A)
                 (A) (A) (A) (A) (A) (A) (A) (A) (A) (A) (A) (A)
                 (A) (A) (A) (A) (A) (A) (A) (A) (A) (A) (A) (A)
                 (A) (A) (A) (A) (A) (A) (A) (A) (A) (A) (A) (A)
                 (A) (A) (A) (A) (A) (A) (A) (A) (A) (A) (A) (A)
                 (A) (A) (A) (A) (A) (A) (A) (A) (A) (A) (A) (A)
                 (A) (A) (A) (A) (A) (A) (A) (A) (A) (A) (A) (A)
                 (A) (A) (A) (A) (A) (A) (A) (A) (A) (A) (A) (A)
                 (A) (A) (A) (A) (A) (A) (A) (A) (A) (A) (A) (A)
                 (A) (A) (A) (A) (A) (A) (A) (A) (A) (A) (A) (A)
                 (A) (A) (A) (A) (A) (A) (A) (A) (A) (A) (A) (A)
                 (A) (A) (A) (A) (A) (A) (A) (A) (A) (A) (A) (A)
                 (A) (A) (A) (A) (A) (A) (A) (A) (A) (A) (A) (A)
                 (A) (A) (A) (A) (A) (A) (A) (A) (A) (A) (A) (A)
                 (A) (A) (A) (A) (A) (A) (A) (A) (A) (A) (A) (A)
 The electronic state is 1-A.
 Alpha  occ. eigenvalues --  -10.18118 -10.18114 -10.16843 -10.16843 -10.16629
 Alpha  occ. eigenvalues --  -10.16629 -10.16185 -10.16183 -10.16093 -10.16092
 Alpha  occ. eigenvalues --   -0.87054  -0.83711  -0.72316  -0.70684  -0.69034
 Alpha  occ. eigenvalues --   -0.67929  -0.56439  -0.55031  -0.53167  -0.51536
 Alpha  occ. eigenvalues --   -0.51478  -0.49821  -0.45587  -0.42284  -0.39087
 Alpha  occ. eigenvalues --   -0.37945  -0.37598  -0.36979  -0.36452  -0.35705
 Alpha  occ. eigenvalues --   -0.35565  -0.33779  -0.31993  -0.27941  -0.25729
 Alpha  occ. eigenvalues --   -0.17725
 Alpha virt. eigenvalues --   -0.04603   0.02718   0.04292   0.04661   0.07432
 Alpha virt. eigenvalues --    0.07712   0.07780   0.09647   0.09757   0.10785
 Alpha virt. eigenvalues --    0.10983   0.12849   0.13472   0.14772   0.15093
 Alpha virt. eigenvalues --    0.18663   0.18780   0.19971   0.21744   0.22326
 Alpha virt. eigenvalues --    0.26015   0.27699   0.30469   0.31115   0.31797
 Alpha virt. eigenvalues --    0.32892   0.35316   0.37298   0.37959   0.37984
 Alpha virt. eigenvalues --    0.39116   0.40607   0.42003   0.42161   0.43194
 Alpha virt. eigenvalues --    0.44209   0.45415   0.45680   0.46669   0.49934
 Alpha virt. eigenvalues --    0.50546   0.52001   0.54948   0.55019   0.55782
 Alpha virt. eigenvalues --    0.56316   0.58677   0.59050   0.59546   0.59665
 Alpha virt. eigenvalues --    0.60702   0.60829   0.61968   0.63671   0.64151
 Alpha virt. eigenvalues --    0.64298   0.65768   0.66402   0.67115   0.68979
 Alpha virt. eigenvalues --    0.70177   0.70764   0.72100   0.74796   0.75326
 Alpha virt. eigenvalues --    0.77659   0.81298   0.81758   0.85719   0.86681
 Alpha virt. eigenvalues --    0.88294   0.90739   0.92464   0.97179   0.99593
 Alpha virt. eigenvalues --    1.05168   1.05433   1.07374   1.10800   1.14382
 Alpha virt. eigenvalues --    1.15999   1.20318   1.20707   1.22670   1.23074
 Alpha virt. eigenvalues --    1.26755   1.34388   1.34668   1.38576   1.42863
 Alpha virt. eigenvalues --    1.45905   1.48551   1.49842   1.50034   1.50415
 Alpha virt. eigenvalues --    1.52038   1.52924   1.54164   1.55673   1.57422
 Alpha virt. eigenvalues --    1.58248   1.59502   1.59805   1.60443   1.61549
 Alpha virt. eigenvalues --    1.64158   1.65376   1.67223   1.68133   1.71910
 Alpha virt. eigenvalues --    1.72161   1.73052   1.74495   1.76329   1.77053
 Alpha virt. eigenvalues --    1.77186   1.81292   1.82640   1.82831   1.83255
 Alpha virt. eigenvalues --    1.83594   1.85946   1.85985   1.87732   1.89264
 Alpha virt. eigenvalues --    1.92121   1.93171   1.93693   1.97105   1.98087
 Alpha virt. eigenvalues --    2.00890   2.01332   2.02140   2.07038   2.07479
 Alpha virt. eigenvalues --    2.13196   2.13516   2.16484   2.16669   2.18261
 Alpha virt. eigenvalues --    2.21631   2.21819   2.27008   2.28910   2.32799
 Alpha virt. eigenvalues --    2.35681   2.36771   2.38379   2.40951   2.42125
 Alpha virt. eigenvalues --    2.45429   2.45481   2.47744   2.49238   2.49584
 Alpha virt. eigenvalues --    2.52387   2.60276   2.61025   2.61078   2.62777
 Alpha virt. eigenvalues --    2.66040   2.67256   2.68155   2.68915   2.70779
 Alpha virt. eigenvalues --    2.71132   2.74450   2.75627   2.76218   2.78257
 Alpha virt. eigenvalues --    2.80440   2.85009   2.85272   2.88741   2.91162
 Alpha virt. eigenvalues --    2.92473   2.92605   2.97083   3.00974   3.03848
 Alpha virt. eigenvalues --    3.08489   3.09214   3.11263   3.17541   3.19309
 Alpha virt. eigenvalues --    3.30139   3.31853   3.41393   3.42709   3.43432
 Alpha virt. eigenvalues --    3.45200   3.54469   3.57105   3.65764   3.77338
 Alpha virt. eigenvalues --    3.84211   4.03823   4.04197   4.07245   4.09401
 Alpha virt. eigenvalues --    4.09606   4.14701   4.16702   4.20401   4.48280
 Alpha virt. eigenvalues --    4.50110  23.63922  23.76148  23.88407  23.88816
 Alpha virt. eigenvalues --   23.92346  24.01665  24.02707  24.07750  24.18292
 Alpha virt. eigenvalues --   24.19174
          Condensed to atoms (all electrons):
               1          2          3          4          5          6
     1  C    4.862533   0.478952  -0.076795  -0.009026   0.008404   0.537171
     2  C    0.478952   5.093821   0.445789  -0.067455  -0.066144  -0.095665
     3  C   -0.076795   0.445789   5.186664   0.197230  -0.067456  -0.083623
     4  C   -0.009026  -0.067455   0.197230   5.186664   0.445790  -0.020110
     5  C    0.008404  -0.066144  -0.067456   0.445790   5.093828   0.057331
     6  C    0.537171  -0.095665  -0.083623  -0.020110   0.057331   5.114052
     7  C   -0.018427   0.008404  -0.009025  -0.076795   0.478945  -0.012423
     8  C   -0.012422   0.057324  -0.020108  -0.083623  -0.095664  -0.004166
     9  C    0.000265  -0.013808  -0.049560   0.375371  -0.089856   0.000901
    10  C   -0.087472  -0.089855   0.375370  -0.049561  -0.013809   0.364873
    11  H    0.421846  -0.044352   0.006732  -0.000235   0.000542  -0.045513
    12  H   -0.035528   0.418427  -0.039028  -0.001005   0.000170   0.006607
    13  H    0.007505  -0.036132   0.406580  -0.026885   0.005465   0.006799
    14  H   -0.000297   0.005465  -0.026885   0.406581  -0.036132  -0.000284
    15  H   -0.000584   0.000170  -0.001004  -0.039028   0.418426   0.002295
    16  H   -0.038278   0.008526   0.005013   0.000355  -0.001721   0.416601
    17  H    0.001803   0.000542  -0.000235   0.006732  -0.044352   0.000270
    18  H    0.000173  -0.001721   0.000355   0.005013   0.008526   0.000054
    19  H   -0.000207   0.004046   0.007658  -0.032373   0.000822  -0.000282
    20  H    0.000868  -0.003818  -0.003409  -0.043051   0.008812   0.000098
    21  H   -0.001852   0.000822  -0.032372   0.007658   0.004046  -0.041122
    22  H    0.006000   0.008812  -0.043051  -0.003409  -0.003818  -0.037977
               7          8          9         10         11         12
     1  C   -0.018427  -0.012422   0.000265  -0.087472   0.421846  -0.035528
     2  C    0.008404   0.057324  -0.013808  -0.089855  -0.044352   0.418427
     3  C   -0.009025  -0.020108  -0.049560   0.375370   0.006732  -0.039028
     4  C   -0.076795  -0.083623   0.375371  -0.049561  -0.000235  -0.001005
     5  C    0.478945  -0.095664  -0.089856  -0.013809   0.000542   0.000170
     6  C   -0.012423  -0.004166   0.000901   0.364873  -0.045513   0.006607
     7  C    4.862531   0.537178  -0.087472   0.000265   0.001803  -0.000584
     8  C    0.537178   5.114045   0.364873   0.000901   0.000270   0.002296
     9  C   -0.087472   0.364873   4.899190   0.005871  -0.000072  -0.000100
    10  C    0.000265   0.000901   0.005871   4.899193   0.008311   0.006211
    11  H    0.001803   0.000270  -0.000072   0.008311   0.573148  -0.003292
    12  H   -0.000584   0.002296  -0.000100   0.006211  -0.003292   0.546901
    13  H   -0.000298  -0.000284  -0.003380  -0.028249  -0.000270  -0.003563
    14  H    0.007504   0.006799  -0.028249  -0.003380   0.000040  -0.000122
    15  H   -0.035528   0.006607   0.006211  -0.000100  -0.000048   0.000003
    16  H    0.000173   0.000054   0.000005  -0.036852  -0.004654  -0.000316
    17  H    0.421846  -0.045513   0.008311  -0.000072   0.000070  -0.000048
    18  H   -0.038278   0.416601  -0.036852   0.000005   0.000020   0.000325
    19  H   -0.001853  -0.041122   0.389453  -0.000299  -0.000002   0.000125
    20  H    0.006000  -0.037976   0.409810   0.000516  -0.000010  -0.000309
    21  H   -0.000207  -0.000282  -0.000299   0.389453  -0.000356  -0.000213
    22  H    0.000868   0.000098   0.000516   0.409811  -0.000260  -0.000309
              13         14         15         16         17         18
     1  C    0.007505  -0.000297  -0.000584  -0.038278   0.001803   0.000173
     2  C   -0.036132   0.005465   0.000170   0.008526   0.000542  -0.001721
     3  C    0.406580  -0.026885  -0.001004   0.005013  -0.000235   0.000355
     4  C   -0.026885   0.406581  -0.039028   0.000355   0.006732   0.005013
     5  C    0.005465  -0.036132   0.418426  -0.001721  -0.044352   0.008526
     6  C    0.006799  -0.000284   0.002295   0.416601   0.000270   0.000054
     7  C   -0.000298   0.007504  -0.035528   0.000173   0.421846  -0.038278
     8  C   -0.000284   0.006799   0.006607   0.000054  -0.045513   0.416601
     9  C   -0.003380  -0.028249   0.006211   0.000005   0.008311  -0.036852
    10  C   -0.028249  -0.003380  -0.000100  -0.036852  -0.000072   0.000005
    11  H   -0.000270   0.000040  -0.000048  -0.004654   0.000070   0.000020
    12  H   -0.003563  -0.000122   0.000003  -0.000316  -0.000048   0.000325
    13  H    0.552951  -0.003985  -0.000122  -0.000344   0.000040   0.000026
    14  H   -0.003985   0.552950  -0.003563   0.000026  -0.000270  -0.000344
    15  H   -0.000122  -0.003563   0.546899   0.000325  -0.003292  -0.000316
    16  H   -0.000344   0.000026   0.000325   0.558230   0.000020   0.000000
    17  H    0.000040  -0.000270  -0.003292   0.000020   0.573148  -0.004654
    18  H    0.000026  -0.000344  -0.000316   0.000000  -0.004654   0.558230
    19  H   -0.000384  -0.002679  -0.000213   0.000001  -0.000356   0.000402
    20  H    0.002637  -0.000779  -0.000309  -0.000005  -0.000260  -0.002136
    21  H   -0.002678  -0.000384   0.000125   0.000402  -0.000002   0.000001
    22  H   -0.000780   0.002637  -0.000309  -0.002136  -0.000010  -0.000005
              19         20         21         22
     1  C   -0.000207   0.000868  -0.001852   0.006000
     2  C    0.004046  -0.003818   0.000822   0.008812
     3  C    0.007658  -0.003409  -0.032372  -0.043051
     4  C   -0.032373  -0.043051   0.007658  -0.003409
     5  C    0.000822   0.008812   0.004046  -0.003818
     6  C   -0.000282   0.000098  -0.041122  -0.037977
     7  C   -0.001853   0.006000  -0.000207   0.000868
     8  C   -0.041122  -0.037976  -0.000282   0.000098
     9  C    0.389453   0.409810  -0.000299   0.000516
    10  C   -0.000299   0.000516   0.389453   0.409811
    11  H   -0.000002  -0.000010  -0.000356  -0.000260
    12  H    0.000125  -0.000309  -0.000213  -0.000309
    13  H   -0.000384   0.002637  -0.002678  -0.000780
    14  H   -0.002679  -0.000779  -0.000384   0.002637
    15  H   -0.000213  -0.000309   0.000125  -0.000309
    16  H    0.000001  -0.000005   0.000402  -0.002136
    17  H   -0.000356  -0.000260  -0.000002  -0.000010
    18  H    0.000402  -0.002136   0.000001  -0.000005
    19  H    0.582511  -0.032681  -0.000012  -0.000039
    20  H   -0.032681   0.580472  -0.000039  -0.000023
    21  H   -0.000012  -0.000039   0.582510  -0.032681
    22  H   -0.000039  -0.000023  -0.032681   0.580472
 Mulliken charges:
               1
     1  C   -0.044630
     2  C   -0.112150
     3  C   -0.178839
     4  C   -0.178839
     5  C   -0.112155
     6  C   -0.165888
     7  C   -0.044630
     8  C   -0.165886
     9  C   -0.151132
    10  C   -0.151132
    11  H    0.086283
    12  H    0.103353
    13  H    0.125351
    14  H    0.125352
    15  H    0.103355
    16  H    0.094575
    17  H    0.086284
    18  H    0.094575
    19  H    0.127483
    20  H    0.115594
    21  H    0.127483
    22  H    0.115594
 Sum of Mulliken charges =  -0.00000
 Mulliken charges with hydrogens summed into heavy atoms:
               1
     1  C    0.041653
     2  C   -0.008797
     3  C   -0.053488
     4  C   -0.053487
     5  C   -0.008800
     6  C   -0.071313
     7  C    0.041654
     8  C   -0.071311
     9  C    0.091944
    10  C    0.091945
 APT charges:
               1
     1  C   -0.017660
     2  C   -0.136257
     3  C    0.091473
     4  C    0.091463
     5  C   -0.136248
     6  C   -0.019366
     7  C   -0.017659
     8  C   -0.019374
     9  C    0.025350
    10  C    0.025349
    11  H    0.040292
    12  H    0.049570
    13  H   -0.008189
    14  H   -0.008189
    15  H    0.049568
    16  H    0.013129
    17  H    0.040292
    18  H    0.013133
    19  H   -0.039173
    20  H    0.000835
    21  H   -0.039173
    22  H    0.000835
 Sum of APT charges =   0.00000
 APT charges with hydrogens summed into heavy atoms:
               1
     1  C    0.022633
     2  C   -0.086688
     3  C    0.083284
     4  C    0.083274
     5  C   -0.086681
     6  C   -0.006237
     7  C    0.022633
     8  C   -0.006242
     9  C   -0.012987
    10  C   -0.012989
 Electronic spatial extent (au):  <R**2>=           1164.1698
 Charge=             -0.0000 electrons
 Dipole moment (field-independent basis, Debye):
    X=              0.0000    Y=             -0.5012    Z=             -0.0000  Tot=              0.5012
 Quadrupole moment (field-independent basis, Debye-Ang):
   XX=            -62.6464   YY=            -57.2624   ZZ=            -59.8876
   XY=              0.0000   XZ=             -3.6804   YZ=              0.0000
 Traceless Quadrupole moment (field-independent basis, Debye-Ang):
   XX=             -2.7143   YY=              2.6697   ZZ=              0.0446
   XY=              0.0000   XZ=             -3.6804   YZ=              0.0000
 Octapole moment (field-independent basis, Debye-Ang**2):
  XXX=             -0.0002  YYY=              2.9223  ZZZ=             -0.0000  XYY=             -0.0000
  XXY=             -1.5252  XXZ=             -0.0000  XZZ=             -0.0001  YZZ=              0.8349
  YYZ=             -0.0001  XYZ=             -1.2453
 Hexadecapole moment (field-independent basis, Debye-Ang**3):
 XXXX=           -886.3599 YYYY=           -390.3368 ZZZZ=           -345.3645 XXXY=              0.0000
 XXXZ=            -24.6035 YYYX=             -0.0001 YYYZ=              0.0001 ZZZX=            -17.3421
 ZZZY=              0.0000 XXYY=           -207.5848 XXZZ=           -210.4012 YYZZ=           -122.6228
 XXYZ=              0.0003 YYXZ=             -0.5562 ZZXY=              0.0004
 N-N= 5.233554310808D+02 E-N=-1.947238134677D+03  KE= 3.864505554773D+02
  Exact polarizability: 170.897   0.000 117.134  -0.742  -0.000 118.584
 Approx polarizability: 283.954   0.001 167.407  11.299  -0.001 202.317
 D2PCM: PCM CHGder 2nd derivatives, FixD1E=F FixD2E=F DoIter=F DoCFld=F I1PDM=0
 Calling FoFJK, ICntrl=    100127 FMM=F ISym2X=0 I1Cent= 0 IOpClX= 0 NMat=1 NMatS=1 NMatT=0.
 Full mass-weighted force constant matrix:
 Low frequencies --- -260.4232  -29.3773   -0.0002   -0.0002    0.0003   11.0369
 Low frequencies ---   30.7167   34.0754  156.5058
 ******    2 imaginary frequencies (negative Signs) ****** 
 Diagonal vibrational polarizability:
       24.6988271       2.3202511      59.2819066
 Harmonic frequencies (cm**-1), IR intensities (KM/Mole), Raman scattering
 activities (A**4/AMU), depolarization ratios for plane and unpolarized
 incident light, reduced masses (AMU), force constants (mDyne/A),
 and normal coordinates:
                      1                      2                      3
                      A                      A                      A
 Frequencies --   -260.4229               -28.0919               156.4950
 Red. masses --      8.9787                 4.8640                 3.3110
 Frc consts  --      0.3588                 0.0023                 0.0478
 IR Inten    --      1.4058                 2.0801                 0.0315
  Atom  AN      X      Y      Z        X      Y      Z        X      Y      Z
     1   6    -0.04  -0.03   0.06     0.02   0.06  -0.00     0.08   0.03  -0.12
     2   6    -0.17   0.08  -0.05    -0.21   0.09  -0.11    -0.01   0.14  -0.04
     3   6    -0.42  -0.01  -0.33    -0.10   0.07  -0.08    -0.07   0.06   0.05
     4   6     0.42  -0.01   0.33    -0.10  -0.07  -0.08     0.07   0.06  -0.05
     5   6     0.17   0.08   0.05    -0.21  -0.09  -0.11     0.01   0.14   0.04
     6   6    -0.16  -0.02  -0.06     0.25   0.03   0.15     0.11  -0.12  -0.05
     7   6     0.04  -0.03  -0.06     0.02  -0.06  -0.00    -0.08   0.03   0.12
     8   6     0.16  -0.02   0.06     0.25  -0.03   0.15    -0.11  -0.12   0.05
     9   6     0.08  -0.02   0.04     0.02  -0.03   0.03    -0.01  -0.11  -0.09
    10   6    -0.08  -0.02  -0.04     0.02   0.03   0.03     0.01  -0.11   0.09
    11   1     0.13  -0.05   0.13     0.05   0.06   0.01     0.15   0.07  -0.23
    12   1     0.01  -0.03   0.04    -0.16   0.06  -0.09    -0.02   0.25  -0.06
    13   1    -0.02   0.08  -0.06    -0.10   0.09  -0.04    -0.15   0.11   0.13
    14   1     0.02   0.08   0.06    -0.10  -0.09  -0.04     0.15   0.11  -0.13
    15   1    -0.01  -0.03  -0.04    -0.16  -0.06  -0.09     0.02   0.25   0.06
    16   1    -0.14   0.00  -0.03     0.39   0.00   0.24     0.18  -0.23  -0.08
    17   1    -0.13  -0.05  -0.13     0.05  -0.06   0.01    -0.15   0.07   0.23
    18   1     0.14   0.00   0.03     0.39  -0.00   0.24    -0.18  -0.23   0.08
    19   1     0.17  -0.00  -0.16    -0.07   0.14   0.06     0.04  -0.13  -0.18
    20   1    -0.09  -0.03   0.06     0.03  -0.14  -0.02    -0.03  -0.19  -0.13
    21   1    -0.17  -0.00   0.16    -0.07  -0.14   0.06    -0.04  -0.13   0.18
    22   1     0.09  -0.03  -0.06     0.03   0.14  -0.02     0.03  -0.19   0.13
                      4                      5                      6
                      A                      A                      A
 Frequencies --    190.5080               276.8520               354.4866
 Red. masses --      3.7938                 3.1219                 3.5703
 Frc consts  --      0.0811                 0.1410                 0.2643
 IR Inten    --      0.2025                 0.0328                 0.0112
  Atom  AN      X      Y      Z        X      Y      Z        X      Y      Z
     1   6    -0.20   0.03  -0.12     0.16   0.06   0.06     0.12  -0.01   0.11
     2   6    -0.08   0.02  -0.01     0.06   0.09   0.04     0.06   0.03   0.14
     3   6     0.04  -0.03   0.10    -0.05   0.09   0.03    -0.03   0.04   0.13
     4   6    -0.04  -0.03  -0.10    -0.05  -0.09   0.03     0.03   0.04  -0.13
     5   6     0.08   0.02   0.01     0.06  -0.09   0.04    -0.06   0.03  -0.14
     6   6    -0.20  -0.01  -0.09    -0.01   0.06  -0.02    -0.15  -0.03  -0.01
     7   6     0.20   0.03   0.12     0.16  -0.06   0.06    -0.12  -0.01  -0.11
     8   6     0.20  -0.01   0.09    -0.01  -0.06  -0.02     0.15  -0.03   0.01
     9   6     0.01  -0.02  -0.07    -0.15  -0.06  -0.10     0.15  -0.03  -0.04
    10   6    -0.01  -0.02   0.07    -0.15   0.06  -0.10    -0.15  -0.03   0.04
    11   1    -0.34   0.07  -0.23     0.34   0.03   0.14     0.28  -0.02   0.15
    12   1    -0.06   0.05   0.00     0.16   0.08   0.09     0.21   0.03   0.21
    13   1    -0.01  -0.02   0.10     0.01   0.10   0.07    -0.14   0.03   0.11
    14   1     0.01  -0.02  -0.10     0.01  -0.10   0.07     0.14   0.03  -0.11
    15   1     0.06   0.05  -0.00     0.16  -0.08   0.09    -0.21   0.03  -0.21
    16   1    -0.29  -0.02  -0.17    -0.01   0.04  -0.04    -0.22  -0.06  -0.09
    17   1     0.34   0.07   0.23     0.34  -0.03   0.14    -0.28  -0.02  -0.15
    18   1     0.29  -0.02   0.17    -0.01  -0.04  -0.04     0.22  -0.06   0.09
    19   1    -0.04   0.15  -0.10    -0.12   0.04  -0.26     0.09   0.01   0.07
    20   1    -0.03  -0.14  -0.12    -0.32  -0.13  -0.10     0.27  -0.07  -0.08
    21   1     0.04   0.15   0.10    -0.12  -0.04  -0.26    -0.09   0.01  -0.07
    22   1     0.03  -0.14   0.12    -0.32   0.13  -0.10    -0.27  -0.07   0.08
                      7                      8                      9
                      A                      A                      A
 Frequencies --    422.3381               441.3614               568.1458
 Red. masses --      1.9534                 1.9373                 3.0048
 Frc consts  --      0.2053                 0.2224                 0.5715
 IR Inten    --      0.1401                 0.9999                 1.7128
  Atom  AN      X      Y      Z        X      Y      Z        X      Y      Z
     1   6     0.06  -0.01   0.02     0.09  -0.01   0.05    -0.13   0.05  -0.06
     2   6     0.10  -0.02   0.02    -0.01   0.01  -0.03     0.17  -0.04   0.11
     3   6    -0.00  -0.01  -0.04    -0.08   0.03  -0.08    -0.10   0.03  -0.04
     4   6     0.00  -0.01   0.04    -0.08  -0.03  -0.08     0.10   0.03   0.04
     5   6    -0.10  -0.02  -0.02    -0.01  -0.01  -0.03    -0.17  -0.04  -0.11
     6   6    -0.04   0.02  -0.05    -0.07   0.02  -0.06     0.07  -0.01   0.07
     7   6    -0.06  -0.01  -0.02     0.09   0.01   0.05     0.13   0.05   0.06
     8   6     0.04   0.02   0.05    -0.07  -0.02  -0.06    -0.07  -0.01  -0.07
     9   6    -0.12   0.02  -0.08     0.04  -0.02   0.08     0.04  -0.02  -0.02
    10   6     0.12   0.02   0.08     0.04   0.02   0.08    -0.04  -0.02   0.02
    11   1     0.08  -0.02   0.05     0.23  -0.04   0.16    -0.33   0.08  -0.19
    12   1     0.21  -0.07   0.08    -0.05   0.02  -0.06     0.36  -0.08   0.21
    13   1     0.05  -0.01  -0.01    -0.11   0.03  -0.07    -0.08   0.01  -0.07
    14   1    -0.05  -0.01   0.01    -0.11  -0.03  -0.07     0.08   0.01   0.07
    15   1    -0.21  -0.07  -0.08    -0.05  -0.02  -0.06    -0.36  -0.08  -0.21
    16   1    -0.10   0.03  -0.09    -0.06   0.01  -0.06    -0.02  -0.02   0.01
    17   1    -0.08  -0.02  -0.05     0.23   0.04   0.16     0.33   0.08   0.19
    18   1     0.10   0.03   0.09    -0.06  -0.01  -0.06     0.02  -0.02  -0.01
    19   1    -0.08   0.22  -0.36    -0.02  -0.22   0.39     0.11  -0.19  -0.03
    20   1    -0.39  -0.14  -0.12     0.33   0.15   0.12     0.07   0.10   0.03
    21   1     0.08   0.22   0.36    -0.02   0.22   0.39    -0.11  -0.19   0.03
    22   1     0.39  -0.14   0.12     0.33  -0.15   0.12    -0.07   0.10  -0.03
                     10                     11                     12
                      A                      A                      A
 Frequencies --    604.7475               706.1818               710.2792
 Red. masses --      2.1759                 1.2413                 1.2159
 Frc consts  --      0.4688                 0.3647                 0.3614
 IR Inten    --      0.8051                 2.1096                60.6100
  Atom  AN      X      Y      Z        X      Y      Z        X      Y      Z
     1   6    -0.07   0.05  -0.06     0.04   0.01   0.04    -0.04  -0.03  -0.03
     2   6     0.13  -0.03   0.04     0.01   0.02   0.02    -0.01  -0.01   0.00
     3   6    -0.11   0.02  -0.06    -0.00   0.02  -0.02     0.02  -0.01   0.03
     4   6    -0.11  -0.02  -0.06     0.00   0.02   0.02     0.02   0.01   0.03
     5   6     0.13   0.03   0.04    -0.01   0.02  -0.02    -0.01   0.01   0.00
     6   6     0.06   0.02   0.03     0.01  -0.03   0.04    -0.02   0.02  -0.05
     7   6    -0.07  -0.05  -0.06    -0.04   0.01  -0.04    -0.04   0.03  -0.03
     8   6     0.06  -0.02   0.03    -0.01  -0.03  -0.04    -0.02  -0.02  -0.05
     9   6    -0.03  -0.01   0.04    -0.06  -0.03   0.01    -0.03  -0.02  -0.00
    10   6    -0.03   0.01   0.04     0.06  -0.03  -0.01    -0.03   0.02  -0.00
    11   1    -0.15   0.06  -0.09    -0.17   0.06  -0.13     0.20  -0.07   0.13
    12   1     0.51  -0.13   0.23    -0.22   0.05  -0.10     0.13  -0.01   0.07
    13   1    -0.09   0.01  -0.08    -0.01   0.02   0.00     0.05  -0.03   0.00
    14   1    -0.09  -0.01  -0.08     0.01   0.02  -0.00     0.05   0.03   0.00
    15   1     0.51   0.13   0.23     0.22   0.05   0.10     0.13   0.01   0.07
    16   1     0.03  -0.01  -0.02    -0.51   0.05  -0.29     0.53  -0.04   0.31
    17   1    -0.15  -0.06  -0.09     0.17   0.06   0.13     0.20   0.07   0.13
    18   1     0.03   0.01  -0.02     0.51   0.05   0.29     0.53   0.04   0.31
    19   1    -0.13   0.04   0.19    -0.04  -0.14   0.08     0.01  -0.14   0.03
    20   1     0.10  -0.03   0.01     0.02   0.07   0.05     0.01   0.09   0.05
    21   1    -0.13  -0.04   0.19     0.04  -0.14  -0.08     0.01   0.14   0.03
    22   1     0.10   0.03   0.01    -0.02   0.07  -0.05     0.01  -0.09   0.05
                     13                     14                     15
                      A                      A                      A
 Frequencies --    727.1519               745.7224               796.1552
 Red. masses --      1.4084                 1.4649                 3.2925
 Frc consts  --      0.4388                 0.4800                 1.2296
 IR Inten    --     67.2588                 0.0724                 0.0344
  Atom  AN      X      Y      Z        X      Y      Z        X      Y      Z
     1   6     0.01  -0.02   0.00    -0.01   0.03   0.02     0.05   0.06  -0.02
     2   6    -0.11   0.02  -0.03    -0.08   0.05  -0.03    -0.00  -0.04  -0.16
     3   6     0.03   0.01   0.01     0.04  -0.01   0.00    -0.03  -0.14   0.03
     4   6     0.03  -0.01   0.01    -0.04  -0.01  -0.00     0.03  -0.14  -0.03
     5   6    -0.11  -0.02  -0.03     0.08   0.05   0.03     0.00  -0.04   0.16
     6   6    -0.02  -0.02   0.01    -0.00  -0.03   0.04     0.08   0.07   0.02
     7   6     0.01   0.02   0.00     0.01   0.03  -0.02    -0.05   0.06   0.02
     8   6    -0.02   0.02   0.01     0.00  -0.03  -0.04    -0.08   0.07  -0.02
     9   6     0.04   0.02  -0.01    -0.07  -0.04   0.02     0.14   0.06  -0.10
    10   6     0.04  -0.02  -0.01     0.07  -0.04  -0.02    -0.14   0.06   0.10
    11   1     0.15  -0.02   0.04     0.09   0.03   0.01    -0.10   0.02   0.11
    12   1     0.51  -0.23   0.28     0.52  -0.19   0.27     0.22  -0.08  -0.05
    13   1     0.07   0.04   0.08     0.12   0.05   0.14     0.10  -0.10   0.15
    14   1     0.07  -0.04   0.08    -0.12   0.05  -0.14    -0.10  -0.10  -0.15
    15   1     0.51   0.23   0.28    -0.52  -0.19  -0.27    -0.22  -0.08   0.05
    16   1    -0.20   0.02  -0.09    -0.09   0.00  -0.01    -0.27  -0.06  -0.35
    17   1     0.15   0.02   0.04    -0.09   0.03  -0.01     0.10   0.02  -0.11
    18   1    -0.20  -0.02  -0.09     0.09   0.00   0.01     0.27  -0.06   0.35
    19   1     0.06  -0.01  -0.03    -0.09  -0.10   0.12     0.18   0.01  -0.15
    20   1     0.02   0.04  -0.00     0.02   0.06   0.06     0.05   0.12  -0.06
    21   1     0.06   0.01  -0.03     0.09  -0.10  -0.12    -0.18   0.01   0.15
    22   1     0.02  -0.04  -0.00    -0.02   0.06  -0.06    -0.05   0.12   0.06
                     16                     17                     18
                      A                      A                      A
 Frequencies --    815.5195               830.7097               835.5775
 Red. masses --      4.1279                 3.7122                 5.0279
 Frc consts  --      1.6175                 1.5093                 2.0683
 IR Inten    --     10.3856                 2.4209                36.1830
  Atom  AN      X      Y      Z        X      Y      Z        X      Y      Z
     1   6    -0.07   0.14   0.08    -0.01   0.20   0.06    -0.04  -0.17  -0.03
     2   6     0.07   0.08   0.00     0.14   0.04  -0.08    -0.06   0.05   0.26
     3   6     0.03   0.09  -0.12     0.03  -0.10  -0.06    -0.06   0.19  -0.03
     4   6     0.03  -0.09  -0.12    -0.03  -0.10   0.06    -0.06  -0.19  -0.03
     5   6     0.07  -0.08   0.00    -0.14   0.04   0.08    -0.06  -0.05   0.26
     6   6    -0.15  -0.11   0.10    -0.13  -0.03   0.09     0.04  -0.06  -0.06
     7   6    -0.07  -0.14   0.08     0.01   0.20  -0.06    -0.04   0.17  -0.03
     8   6    -0.15   0.11   0.10     0.13  -0.03  -0.09     0.04   0.06  -0.06
     9   6     0.08   0.15  -0.07    -0.01  -0.12  -0.01     0.12  -0.04  -0.12
    10   6     0.08  -0.15  -0.07     0.01  -0.12   0.01     0.12   0.04  -0.12
    11   1     0.19   0.16   0.03     0.05   0.19   0.09     0.05  -0.10  -0.27
    12   1    -0.05  -0.12  -0.04    -0.23   0.04  -0.25    -0.17   0.19   0.20
    13   1    -0.09   0.17   0.03     0.08   0.00   0.16    -0.00   0.11  -0.18
    14   1    -0.09  -0.17   0.03    -0.08   0.00  -0.16    -0.00  -0.11  -0.18
    15   1    -0.05   0.12  -0.04     0.23   0.04   0.25    -0.17  -0.19   0.20
    16   1     0.22  -0.15   0.33     0.25  -0.20   0.23    -0.02   0.21   0.10
    17   1     0.19  -0.16   0.03    -0.05   0.19  -0.09     0.05   0.10  -0.27
    18   1     0.22   0.15   0.33    -0.25  -0.20  -0.23    -0.02  -0.21   0.10
    19   1     0.08   0.15  -0.08    -0.09  -0.05   0.11     0.03   0.02   0.03
    20   1     0.08   0.03  -0.13    -0.01   0.03   0.06     0.14   0.06  -0.07
    21   1     0.08  -0.15  -0.08     0.09  -0.05  -0.11     0.03  -0.02   0.03
    22   1     0.08  -0.03  -0.13     0.01   0.03  -0.06     0.14  -0.06  -0.07
                     19                     20                     21
                      A                      A                      A
 Frequencies --    893.3410               925.2943               934.9794
 Red. masses --      2.1750                 2.0032                 1.8006
 Frc consts  --      1.0227                 1.0105                 0.9274
 IR Inten    --     11.7652                17.9511                 0.7127
  Atom  AN      X      Y      Z        X      Y      Z        X      Y      Z
     1   6    -0.01   0.03   0.02    -0.01   0.00  -0.01     0.00   0.00   0.01
     2   6    -0.02  -0.04  -0.05     0.01  -0.00  -0.01     0.01  -0.05  -0.07
     3   6     0.10   0.13  -0.06    -0.10  -0.04   0.05    -0.03   0.05   0.02
     4   6    -0.10   0.13   0.06    -0.10   0.04   0.05     0.03   0.05  -0.02
     5   6     0.02  -0.04   0.05     0.01   0.00  -0.01    -0.01  -0.05   0.07
     6   6    -0.00  -0.05   0.04    -0.01   0.10  -0.04    -0.00   0.11  -0.05
     7   6     0.01   0.03  -0.02    -0.01  -0.00  -0.01    -0.00   0.00  -0.01
     8   6     0.00  -0.05  -0.04    -0.01  -0.10  -0.04     0.00   0.11   0.05
     9   6     0.10  -0.03   0.02     0.12   0.07   0.00    -0.05  -0.09  -0.02
    10   6    -0.10  -0.03  -0.02     0.12  -0.07   0.00     0.05  -0.09   0.02
    11   1     0.02   0.04  -0.01     0.01  -0.05   0.18    -0.14  -0.05   0.19
    12   1    -0.02  -0.37  -0.03     0.08   0.13   0.01     0.05  -0.15  -0.05
    13   1    -0.07   0.08  -0.21    -0.40   0.02   0.14    -0.47   0.09   0.03
    14   1     0.07   0.08   0.21    -0.40  -0.02   0.14     0.47   0.09  -0.03
    15   1     0.02  -0.37   0.03     0.08  -0.13   0.01    -0.05  -0.15   0.05
    16   1    -0.11  -0.08  -0.05     0.02   0.23   0.08     0.02   0.21   0.05
    17   1    -0.02   0.04   0.01     0.01   0.05   0.18     0.14  -0.05  -0.19
    18   1     0.11  -0.08   0.05     0.02  -0.23   0.08    -0.02   0.21  -0.05
    19   1     0.21   0.04  -0.32     0.20   0.16  -0.26    -0.06  -0.18   0.11
    20   1    -0.13  -0.24  -0.05    -0.14  -0.05  -0.02     0.18  -0.12  -0.07
    21   1    -0.21   0.04   0.32     0.20  -0.16  -0.26     0.06  -0.18  -0.11
    22   1     0.13  -0.24   0.05    -0.14   0.05  -0.02    -0.18  -0.12   0.07
                     22                     23                     24
                      A                      A                      A
 Frequencies --    950.2795               954.4925               967.3175
 Red. masses --      1.3704                 1.3742                 1.6165
 Frc consts  --      0.7291                 0.7376                 0.8912
 IR Inten    --      1.7274                10.3951                11.0647
  Atom  AN      X      Y      Z        X      Y      Z        X      Y      Z
     1   6     0.10  -0.01   0.04    -0.10   0.01  -0.04     0.01  -0.01   0.04
     2   6    -0.02  -0.00  -0.01     0.03  -0.00   0.00     0.00   0.01  -0.02
     3   6     0.01   0.00  -0.02     0.01  -0.00   0.01     0.02   0.02   0.03
     4   6    -0.01   0.00   0.02     0.01   0.00   0.01     0.02  -0.02   0.03
     5   6     0.03  -0.00   0.01     0.03   0.00   0.00     0.00  -0.01  -0.02
     6   6    -0.04  -0.01  -0.02     0.06   0.01   0.02     0.03   0.07  -0.01
     7   6    -0.10  -0.01  -0.04    -0.10  -0.01  -0.04     0.01   0.01   0.04
     8   6     0.04  -0.01   0.02     0.06  -0.01   0.02     0.03  -0.07  -0.01
     9   6     0.01   0.03  -0.03    -0.01   0.01  -0.02    -0.04   0.09  -0.08
    10   6    -0.01   0.03   0.03    -0.01  -0.01  -0.02    -0.04  -0.09  -0.08
    11   1    -0.50   0.10  -0.34     0.47  -0.11   0.35    -0.29  -0.00   0.02
    12   1     0.09  -0.08   0.05    -0.12   0.07  -0.07    -0.00  -0.06  -0.02
    13   1    -0.00  -0.03  -0.09     0.07   0.02   0.06     0.09   0.09   0.17
    14   1     0.00  -0.03   0.09     0.07  -0.02   0.06     0.09  -0.09   0.17
    15   1    -0.09  -0.08  -0.05    -0.12  -0.07  -0.07    -0.00   0.06  -0.02
    16   1     0.22  -0.10   0.10    -0.23   0.07  -0.14    -0.01   0.27   0.11
    17   1     0.50   0.10   0.34     0.47   0.11   0.35    -0.29   0.00   0.02
    18   1    -0.22  -0.10  -0.10    -0.23  -0.07  -0.14    -0.01  -0.27   0.11
    19   1    -0.02   0.01   0.04    -0.06   0.02   0.09    -0.15   0.01   0.23
    20   1     0.06   0.07  -0.02     0.06   0.07  -0.01     0.13   0.39   0.04
    21   1     0.02   0.01  -0.04    -0.06  -0.02   0.09    -0.15  -0.01   0.23
    22   1    -0.06   0.07   0.02     0.06  -0.07  -0.01     0.13  -0.39   0.04
                     25                     26                     27
                      A                      A                      A
 Frequencies --    981.5703               982.3345              1013.9268
 Red. masses --      1.9539                 1.7730                 1.4002
 Frc consts  --      1.1091                 1.0080                 0.8481
 IR Inten    --     35.9110                 0.0034                 0.0275
  Atom  AN      X      Y      Z        X      Y      Z        X      Y      Z
     1   6     0.02   0.03  -0.00    -0.02  -0.00  -0.04     0.01   0.01  -0.02
     2   6    -0.00   0.03   0.00     0.00  -0.04  -0.02     0.00  -0.03  -0.03
     3   6    -0.05  -0.11   0.07     0.02   0.05  -0.05    -0.04  -0.01   0.06
     4   6    -0.05   0.11   0.07    -0.02   0.05   0.05     0.04  -0.01  -0.06
     5   6    -0.00  -0.03   0.00    -0.00  -0.04   0.02    -0.00  -0.03   0.03
     6   6    -0.00  -0.04   0.06    -0.04  -0.05  -0.01    -0.02  -0.05   0.05
     7   6     0.02  -0.03  -0.00     0.02  -0.00   0.04    -0.01   0.01   0.02
     8   6    -0.00   0.04   0.06     0.04  -0.05   0.01     0.02  -0.05  -0.05
     9   6     0.01  -0.03  -0.12    -0.04   0.07  -0.12    -0.01   0.04   0.06
    10   6     0.01   0.03  -0.12     0.04   0.07   0.12     0.01   0.04  -0.06
    11   1     0.03   0.07  -0.15     0.25  -0.04   0.10     0.07   0.03  -0.10
    12   1     0.06   0.21   0.02    -0.05  -0.13  -0.04     0.03  -0.09  -0.01
    13   1    -0.11  -0.10   0.10    -0.05  -0.01  -0.19    -0.49   0.02   0.03
    14   1    -0.11   0.10   0.10     0.05  -0.01   0.19     0.49   0.02  -0.03
    15   1     0.06  -0.21   0.02     0.05  -0.13   0.04    -0.03  -0.09   0.01
    16   1    -0.03  -0.03   0.06     0.03  -0.26  -0.13    -0.01  -0.13  -0.02
    17   1     0.03  -0.07  -0.15    -0.25  -0.04  -0.10    -0.07   0.03   0.10
    18   1    -0.03   0.03   0.06    -0.03  -0.26   0.13     0.01  -0.13   0.02
    19   1     0.05  -0.33   0.07    -0.10  -0.14   0.21    -0.08   0.24   0.02
    20   1     0.42  -0.09  -0.21     0.27   0.31  -0.05    -0.25   0.20   0.17
    21   1     0.05   0.33   0.07     0.10  -0.14  -0.21     0.08   0.24  -0.02
    22   1     0.42   0.09  -0.21    -0.27   0.31   0.05     0.25   0.20  -0.17
                     28                     29                     30
                      A                      A                      A
 Frequencies --   1042.8059              1083.4202              1084.7429
 Red. masses --      1.6228                 1.1936                 1.5833
 Frc consts  --      1.0397                 0.8255                 1.0976
 IR Inten    --     24.8651                 6.2309                 0.5054
  Atom  AN      X      Y      Z        X      Y      Z        X      Y      Z
     1   6    -0.02  -0.08   0.01     0.01   0.03  -0.02     0.03   0.09  -0.03
     2   6     0.05  -0.01  -0.08    -0.00  -0.06   0.02    -0.06  -0.02   0.07
     3   6    -0.04   0.06   0.02    -0.02   0.02   0.03    -0.00  -0.07  -0.01
     4   6    -0.04  -0.06   0.02    -0.02  -0.02   0.03     0.00  -0.07   0.01
     5   6     0.05   0.01  -0.08    -0.00   0.06   0.02     0.06  -0.02  -0.07
     6   6    -0.01  -0.05   0.01     0.02   0.01  -0.01     0.02   0.05  -0.01
     7   6    -0.02   0.08   0.01     0.01  -0.03  -0.02    -0.03   0.09   0.03
     8   6    -0.01   0.05   0.01     0.02  -0.01  -0.01    -0.02   0.05   0.01
     9   6     0.02  -0.05  -0.00    -0.00  -0.01  -0.01    -0.00  -0.03  -0.01
    10   6     0.02   0.05  -0.00    -0.00   0.01  -0.01     0.00  -0.03   0.01
    11   1    -0.16  -0.13   0.15     0.16   0.09  -0.20     0.28   0.18  -0.30
    12   1     0.03  -0.03  -0.09    -0.20  -0.48  -0.05    -0.07  -0.17   0.08
    13   1     0.14   0.27   0.47    -0.17   0.12   0.20    -0.12  -0.23  -0.35
    14   1     0.14  -0.27   0.47    -0.17  -0.12   0.20     0.12  -0.23   0.35
    15   1     0.03   0.03  -0.09    -0.20   0.48  -0.05     0.07  -0.17  -0.08
    16   1     0.03  -0.09   0.01     0.01  -0.01  -0.03    -0.02   0.11   0.00
    17   1    -0.16   0.13   0.15     0.16  -0.09  -0.20    -0.28   0.18   0.30
    18   1     0.03   0.09   0.01     0.01   0.01  -0.03     0.02   0.11  -0.00
    19   1    -0.02   0.03   0.01     0.10  -0.19  -0.07    -0.03   0.01   0.04
    20   1     0.08  -0.24  -0.10    -0.01   0.06   0.03     0.05  -0.11  -0.05
    21   1    -0.02  -0.03   0.01     0.10   0.19  -0.07     0.04   0.01  -0.04
    22   1     0.08   0.24  -0.10    -0.00  -0.06   0.03    -0.05  -0.11   0.05
                     31                     32                     33
                      A                      A                      A
 Frequencies --   1095.0478              1108.7168              1115.5298
 Red. masses --      1.0967                 1.1858                 1.3875
 Frc consts  --      0.7748                 0.8588                 1.0173
 IR Inten    --      3.3306                 3.7710                 2.0302
  Atom  AN      X      Y      Z        X      Y      Z        X      Y      Z
     1   6     0.01  -0.01  -0.02     0.02  -0.03  -0.03     0.01  -0.05  -0.03
     2   6     0.01  -0.04   0.00     0.02  -0.01  -0.03     0.03   0.01  -0.07
     3   6    -0.03   0.02   0.01    -0.01  -0.02  -0.00     0.02  -0.00  -0.01
     4   6     0.03   0.02  -0.01    -0.01   0.02  -0.00    -0.02  -0.00   0.01
     5   6    -0.01  -0.04  -0.00     0.02   0.01  -0.03    -0.03   0.01   0.07
     6   6    -0.00   0.00  -0.00    -0.04   0.00   0.03    -0.05  -0.02   0.06
     7   6    -0.01  -0.01   0.02     0.02   0.03  -0.03    -0.01  -0.05   0.03
     8   6     0.00   0.00   0.00    -0.04  -0.00   0.03     0.05  -0.02  -0.06
     9   6    -0.00   0.02  -0.01     0.00  -0.01   0.03     0.01   0.01  -0.03
    10   6     0.00   0.02   0.01     0.00   0.01   0.03    -0.01   0.01   0.03
    11   1     0.15   0.06  -0.25     0.24   0.06  -0.32     0.15  -0.01  -0.21
    12   1    -0.16  -0.36  -0.06    -0.00   0.01  -0.04     0.12   0.24  -0.04
    13   1     0.18   0.18   0.39     0.18  -0.01   0.05    -0.07  -0.05  -0.14
    14   1    -0.18   0.18  -0.39     0.18   0.01   0.05     0.07  -0.05   0.14
    15   1     0.16  -0.36   0.06    -0.00  -0.01  -0.04    -0.12   0.24   0.04
    16   1    -0.01   0.15   0.11    -0.11   0.38   0.29    -0.16   0.38   0.31
    17   1    -0.15   0.06   0.25     0.24  -0.06  -0.32    -0.15  -0.01   0.21
    18   1     0.01   0.15  -0.11    -0.11  -0.38   0.29     0.16   0.38  -0.31
    19   1     0.00  -0.01   0.02    -0.09   0.17   0.06     0.10  -0.13  -0.09
    20   1     0.04   0.02  -0.02    -0.04  -0.08   0.00     0.03   0.10   0.00
    21   1    -0.00  -0.01  -0.02    -0.09  -0.17   0.06    -0.10  -0.13   0.09
    22   1    -0.04   0.02   0.02    -0.04   0.08   0.00    -0.03   0.10  -0.00
                     34                     35                     36
                      A                      A                      A
 Frequencies --   1132.9501              1152.4344              1205.0613
 Red. masses --      1.3907                 1.1547                 1.2948
 Frc consts  --      1.0517                 0.9035                 1.1078
 IR Inten    --      7.7988                 2.2044                 1.2784
  Atom  AN      X      Y      Z        X      Y      Z        X      Y      Z
     1   6    -0.01  -0.05  -0.01    -0.01  -0.02   0.00     0.00   0.03   0.01
     2   6     0.04   0.01  -0.05     0.02   0.00  -0.03    -0.01  -0.02   0.02
     3   6     0.02   0.05  -0.02    -0.01   0.01  -0.03    -0.09  -0.03  -0.04
     4   6     0.02  -0.05  -0.02     0.01   0.01   0.03    -0.09   0.03  -0.04
     5   6     0.04  -0.01  -0.05    -0.02   0.00   0.03    -0.01   0.02   0.02
     6   6     0.01  -0.03   0.07     0.03  -0.02   0.05     0.01   0.00   0.00
     7   6    -0.01   0.05  -0.01     0.01  -0.02  -0.00     0.00  -0.03   0.01
     8   6     0.01   0.03   0.07    -0.03  -0.02  -0.05     0.01  -0.00   0.00
     9   6    -0.03  -0.01   0.02     0.02   0.00  -0.02     0.02   0.02   0.01
    10   6    -0.03   0.01   0.02    -0.02   0.00   0.02     0.02  -0.02   0.01
    11   1    -0.03  -0.05  -0.03    -0.02  -0.01  -0.05    -0.00   0.04  -0.01
    12   1     0.10   0.18  -0.04     0.05   0.05  -0.02    -0.01   0.10   0.02
    13   1    -0.24   0.05  -0.07     0.01   0.02  -0.01     0.54  -0.00   0.12
    14   1    -0.24  -0.05  -0.07    -0.01   0.02   0.01     0.54   0.00   0.12
    15   1     0.10  -0.18  -0.04    -0.05   0.05   0.02    -0.01  -0.10   0.02
    16   1    -0.14   0.14   0.11    -0.09   0.05   0.03     0.03  -0.05  -0.04
    17   1    -0.03   0.05  -0.03     0.02  -0.01   0.05    -0.00  -0.04  -0.01
    18   1    -0.14  -0.14   0.11     0.09   0.05  -0.03     0.03   0.05  -0.04
    19   1     0.20  -0.39  -0.17    -0.28   0.44   0.24     0.20  -0.19  -0.20
    20   1    -0.16   0.22   0.15     0.19  -0.27  -0.18    -0.10   0.18   0.09
    21   1     0.20   0.39  -0.17     0.28   0.44  -0.24     0.20   0.19  -0.20
    22   1    -0.16  -0.22   0.15    -0.19  -0.27   0.18    -0.10  -0.18   0.09
                     37                     38                     39
                      A                      A                      A
 Frequencies --   1276.1863              1277.2800              1299.1124
 Red. masses --      1.9893                 2.0401                 1.3843
 Frc consts  --      1.9089                 1.9610                 1.3765
 IR Inten    --      7.1236                 2.5927                 0.5661
  Atom  AN      X      Y      Z        X      Y      Z        X      Y      Z
     1   6    -0.01   0.04   0.03     0.00  -0.05  -0.02    -0.02  -0.03   0.03
     2   6     0.01  -0.03  -0.05    -0.01   0.04   0.05    -0.02  -0.03   0.02
     3   6    -0.04  -0.00   0.06     0.06   0.00  -0.07     0.05  -0.04  -0.07
     4   6    -0.04   0.00   0.06    -0.06   0.00   0.07     0.05   0.04  -0.07
     5   6     0.01   0.03  -0.05     0.01   0.04  -0.05    -0.02   0.03   0.02
     6   6    -0.01  -0.06   0.02     0.02   0.06  -0.02    -0.00   0.06   0.02
     7   6    -0.01  -0.04   0.03    -0.00  -0.05   0.02    -0.02   0.03   0.03
     8   6    -0.01   0.06   0.02    -0.02   0.06   0.02    -0.00  -0.06   0.02
     9   6     0.09  -0.13  -0.08     0.09  -0.12  -0.08    -0.01  -0.01  -0.01
    10   6     0.09   0.13  -0.08    -0.09  -0.12   0.08    -0.01   0.01  -0.01
    11   1     0.01   0.05  -0.01    -0.00  -0.05  -0.00     0.16   0.07  -0.27
    12   1     0.04  -0.02  -0.04    -0.04  -0.03   0.04     0.07   0.30   0.04
    13   1    -0.03  -0.08  -0.10    -0.07   0.08   0.08    -0.16   0.18   0.34
    14   1    -0.03   0.08  -0.10     0.07   0.08  -0.08    -0.16  -0.18   0.34
    15   1     0.04   0.02  -0.04     0.04  -0.03  -0.04     0.07  -0.30   0.04
    16   1     0.00  -0.11   0.00    -0.02   0.11  -0.01     0.07  -0.21  -0.15
    17   1     0.01  -0.05  -0.01     0.00  -0.05   0.00     0.16  -0.07  -0.27
    18   1     0.00   0.11   0.00     0.02   0.11   0.01     0.07   0.21  -0.15
    19   1    -0.15   0.25   0.13    -0.15   0.25   0.13    -0.08   0.09   0.05
    20   1    -0.28   0.42   0.24    -0.28   0.43   0.24    -0.06   0.10   0.06
    21   1    -0.15  -0.25   0.13     0.15   0.25  -0.13    -0.08  -0.09   0.05
    22   1    -0.28  -0.42   0.25     0.28   0.43  -0.24    -0.06  -0.10   0.06
                     40                     41                     42
                      A                      A                      A
 Frequencies --   1301.8596              1360.5743              1382.4255
 Red. masses --      1.3903                 2.3391                 2.9539
 Frc consts  --      1.3883                 2.5512                 3.3260
 IR Inten    --      0.2017                 5.1900                 6.0365
  Atom  AN      X      Y      Z        X      Y      Z        X      Y      Z
     1   6    -0.02  -0.03   0.03    -0.03  -0.02   0.02    -0.02   0.01   0.03
     2   6    -0.02  -0.03   0.02     0.03   0.14   0.04     0.01   0.15   0.07
     3   6     0.06  -0.02  -0.07     0.07  -0.11  -0.06     0.02  -0.15  -0.11
     4   6    -0.06  -0.02   0.07    -0.07  -0.11   0.06     0.02   0.15  -0.11
     5   6     0.02  -0.03  -0.02    -0.03   0.14  -0.04     0.01  -0.15   0.07
     6   6    -0.01   0.06   0.02     0.03  -0.07  -0.05     0.05  -0.09  -0.08
     7   6     0.02  -0.03  -0.03     0.03  -0.02  -0.02    -0.02  -0.01   0.03
     8   6     0.01   0.06  -0.02    -0.03  -0.07   0.05     0.05   0.09  -0.08
     9   6     0.00   0.02   0.01     0.01   0.09  -0.01    -0.02  -0.08   0.02
    10   6    -0.00   0.02  -0.01    -0.01   0.09   0.01    -0.02   0.08   0.02
    11   1     0.16   0.07  -0.27    -0.11  -0.06   0.15    -0.14  -0.04   0.19
    12   1     0.08   0.29   0.04    -0.10  -0.33   0.01    -0.09  -0.26   0.07
    13   1    -0.24   0.17   0.29    -0.41   0.01   0.14    -0.14   0.06   0.34
    14   1     0.24   0.17  -0.29     0.41   0.01  -0.14    -0.14  -0.06   0.34
    15   1    -0.08   0.29  -0.04     0.10  -0.33  -0.01    -0.09   0.26   0.07
    16   1     0.07  -0.22  -0.16    -0.05   0.18   0.10    -0.05   0.27   0.14
    17   1    -0.16   0.07   0.27     0.11  -0.06  -0.15    -0.14   0.04   0.19
    18   1    -0.07  -0.22   0.16     0.05   0.18  -0.10    -0.05  -0.27   0.14
    19   1     0.07  -0.08  -0.06     0.08  -0.10  -0.01    -0.03   0.04  -0.05
    20   1     0.08  -0.11  -0.07     0.08  -0.11  -0.12    -0.10   0.09   0.12
    21   1    -0.07  -0.08   0.06    -0.08  -0.10   0.01    -0.03  -0.04  -0.05
    22   1    -0.08  -0.11   0.07    -0.08  -0.11   0.12    -0.10  -0.09   0.12
                     43                     44                     45
                      A                      A                      A
 Frequencies --   1439.0226              1442.4105              1471.3564
 Red. masses --      2.6115                 2.2530                 1.1350
 Frc consts  --      3.1862                 2.7618                 1.4477
 IR Inten    --      9.4578                 4.2265                 8.6182
  Atom  AN      X      Y      Z        X      Y      Z        X      Y      Z
     1   6     0.10   0.11  -0.12     0.07   0.11  -0.08     0.01   0.02  -0.00
     2   6    -0.06  -0.14   0.07    -0.07  -0.11   0.07    -0.01  -0.03  -0.00
     3   6     0.04   0.02  -0.03     0.03  -0.00  -0.06     0.00   0.02   0.00
     4   6     0.04  -0.02  -0.03    -0.03  -0.00   0.06     0.00  -0.02   0.00
     5   6    -0.06   0.14   0.07     0.07  -0.11  -0.07    -0.01   0.03  -0.00
     6   6    -0.03  -0.06   0.02     0.00  -0.08  -0.02    -0.00  -0.01  -0.00
     7   6     0.10  -0.11  -0.12    -0.07   0.11   0.08     0.01  -0.02  -0.00
     8   6    -0.03   0.06   0.02    -0.00  -0.08   0.02    -0.00   0.01  -0.00
     9   6     0.00  -0.01  -0.01    -0.01   0.01   0.01    -0.04  -0.04   0.03
    10   6     0.00   0.01  -0.01     0.01   0.01  -0.01    -0.04   0.04   0.03
    11   1    -0.19  -0.02   0.34    -0.16   0.02   0.29    -0.00   0.01   0.02
    12   1    -0.00   0.28   0.08     0.02   0.25   0.10     0.01   0.06   0.00
    13   1    -0.08   0.15   0.21    -0.08   0.14   0.22    -0.03   0.02   0.00
    14   1    -0.08  -0.15   0.21     0.08   0.14  -0.22    -0.03  -0.02   0.00
    15   1    -0.00  -0.28   0.08    -0.02   0.25  -0.10     0.01  -0.06   0.00
    16   1    -0.07   0.18   0.19    -0.08   0.23   0.18    -0.02   0.04   0.03
    17   1    -0.19   0.02   0.34     0.16   0.02  -0.29    -0.00  -0.01   0.02
    18   1    -0.07  -0.18   0.19     0.08   0.23  -0.18    -0.02  -0.04   0.03
    19   1    -0.07  -0.06   0.16     0.04   0.13  -0.17     0.04   0.27  -0.39
    20   1    -0.12  -0.06  -0.01     0.19   0.10   0.01     0.45   0.22   0.06
    21   1    -0.07   0.05   0.16    -0.04   0.13   0.17     0.04  -0.27  -0.39
    22   1    -0.12   0.06  -0.01    -0.19   0.10  -0.01     0.45  -0.22   0.06
                     46                     47                     48
                      A                      A                      A
 Frequencies --   1471.8532              1512.2074              1534.1309
 Red. masses --      1.1698                 3.5536                 3.9936
 Frc consts  --      1.4931                 4.7879                 5.5378
 IR Inten    --      3.3346                 7.6420                 0.7633
  Atom  AN      X      Y      Z        X      Y      Z        X      Y      Z
     1   6     0.01   0.03  -0.00    -0.08   0.09   0.18     0.12  -0.06  -0.22
     2   6    -0.01  -0.04   0.00    -0.02  -0.10  -0.04    -0.02   0.06   0.05
     3   6     0.00   0.01  -0.01     0.01   0.04   0.03     0.00  -0.02  -0.03
     4   6    -0.00   0.01   0.01     0.01  -0.04   0.03    -0.00  -0.02   0.03
     5   6     0.01  -0.04  -0.00    -0.02   0.10  -0.04     0.02   0.06  -0.05
     6   6     0.00  -0.02  -0.01     0.10  -0.11  -0.17    -0.10   0.11   0.19
     7   6    -0.01   0.03   0.00    -0.08  -0.09   0.18    -0.12  -0.06   0.22
     8   6    -0.00  -0.02   0.01     0.10   0.11  -0.17     0.10   0.11  -0.19
     9   6     0.04   0.04  -0.03    -0.02   0.01   0.02    -0.01   0.01   0.02
    10   6    -0.04   0.04   0.03    -0.02  -0.01   0.02     0.01   0.01  -0.02
    11   1    -0.01   0.02   0.03     0.14   0.23  -0.18    -0.17  -0.23   0.23
    12   1     0.03   0.09   0.02     0.14   0.29   0.00    -0.10  -0.22   0.04
    13   1    -0.00   0.04   0.03    -0.04   0.02  -0.04     0.01  -0.00   0.03
    14   1    -0.00   0.04  -0.03    -0.04  -0.02  -0.04    -0.01  -0.00  -0.03
    15   1    -0.03   0.09  -0.02     0.14  -0.29   0.00     0.10  -0.22  -0.04
    16   1    -0.02   0.06   0.04    -0.01   0.31   0.05    -0.01  -0.29  -0.02
    17   1     0.01   0.02  -0.03     0.14  -0.23  -0.18     0.17  -0.23  -0.23
    18   1     0.02   0.06  -0.04    -0.01  -0.31   0.05     0.01  -0.29   0.02
    19   1    -0.05  -0.26   0.40     0.03  -0.13   0.04     0.03  -0.14   0.05
    20   1    -0.44  -0.21  -0.07    -0.02  -0.22  -0.08    -0.05  -0.22  -0.08
    21   1     0.05  -0.26  -0.40     0.03   0.13   0.04    -0.03  -0.14  -0.05
    22   1     0.44  -0.21   0.07    -0.02   0.22  -0.08     0.05  -0.22   0.08
                     49                     50                     51
                      A                      A                      A
 Frequencies --   2983.3909              2983.5941              3081.1514
 Red. masses --      1.0715                 1.0719                 1.0891
 Frc consts  --      5.6193                 5.6220                 6.0920
 IR Inten    --    121.8000                19.8972                15.9611
  Atom  AN      X      Y      Z        X      Y      Z        X      Y      Z
     1   6     0.00   0.00  -0.00     0.00   0.00  -0.00    -0.00   0.00  -0.00
     2   6    -0.00  -0.00   0.00    -0.00  -0.00   0.00     0.00   0.00  -0.00
     3   6    -0.00  -0.00   0.00    -0.00  -0.00   0.00    -0.00   0.00  -0.00
     4   6    -0.00   0.00   0.00     0.00  -0.00  -0.00     0.00   0.00   0.00
     5   6    -0.00   0.00   0.00     0.00  -0.00  -0.00    -0.00   0.00   0.00
     6   6    -0.00   0.00  -0.00    -0.00   0.00  -0.00    -0.00  -0.00   0.00
     7   6     0.00  -0.00  -0.00    -0.00   0.00   0.00     0.00   0.00   0.00
     8   6    -0.00  -0.00  -0.00     0.00   0.00   0.00     0.00  -0.00  -0.00
     9   6    -0.05  -0.02  -0.01     0.05   0.02   0.01     0.01  -0.02   0.05
    10   6    -0.05   0.02  -0.01    -0.05   0.02  -0.01    -0.01  -0.02  -0.05
    11   1    -0.00  -0.00  -0.00    -0.00  -0.00  -0.00     0.00  -0.00   0.00
    12   1    -0.00   0.00   0.00    -0.00   0.00  -0.00    -0.00   0.00   0.01
    13   1     0.00   0.02  -0.01     0.00   0.03  -0.01    -0.00  -0.04   0.02
    14   1     0.00  -0.02  -0.01    -0.00   0.03   0.01     0.00  -0.04  -0.02
    15   1    -0.00  -0.00   0.00     0.00   0.00   0.00     0.00   0.00  -0.01
    16   1    -0.00  -0.00   0.01    -0.00  -0.00   0.01     0.01   0.01  -0.02
    17   1    -0.00   0.00  -0.00     0.00  -0.00   0.00    -0.00  -0.00  -0.00
    18   1    -0.00   0.00   0.01     0.00  -0.00  -0.01    -0.01   0.01   0.02
    19   1     0.61   0.24   0.28    -0.58  -0.23  -0.27    -0.09  -0.04  -0.03
    20   1    -0.03   0.04  -0.11     0.03  -0.04   0.10    -0.10   0.30  -0.62
    21   1     0.58  -0.23   0.27     0.61  -0.24   0.28     0.09  -0.04   0.03
    22   1    -0.03  -0.04  -0.11    -0.03  -0.04  -0.10     0.10   0.30   0.62
                     52                     53                     54
                      A                      A                      A
 Frequencies --   3082.5068              3126.9258              3135.3956
 Red. masses --      1.0898                 1.0899                 1.0891
 Frc consts  --      6.1008                 6.2788                 6.3080
 IR Inten    --     41.9340                 8.3910                47.6098
  Atom  AN      X      Y      Z        X      Y      Z        X      Y      Z
     1   6    -0.00   0.00  -0.00     0.00   0.00   0.00     0.00   0.00   0.00
     2   6    -0.00  -0.00   0.00     0.00   0.00  -0.00     0.00   0.00  -0.00
     3   6    -0.00  -0.00   0.00    -0.00  -0.06   0.03    -0.01  -0.06   0.02
     4   6    -0.00   0.00   0.00    -0.00   0.06   0.03     0.01  -0.06  -0.02
     5   6    -0.00   0.00   0.00     0.00  -0.00  -0.00    -0.00   0.00   0.00
     6   6    -0.00  -0.00   0.00    -0.00  -0.00   0.00    -0.00  -0.00   0.00
     7   6    -0.00  -0.00  -0.00     0.00  -0.00   0.00    -0.00   0.00  -0.00
     8   6    -0.00   0.00   0.00    -0.00   0.00   0.00     0.00  -0.00  -0.00
     9   6    -0.01   0.02  -0.05     0.00   0.00   0.00    -0.00  -0.00   0.00
    10   6    -0.01  -0.02  -0.05     0.00  -0.00   0.00     0.00  -0.00  -0.00
    11   1     0.00   0.00   0.00    -0.00  -0.00  -0.00    -0.00  -0.00  -0.00
    12   1     0.00  -0.00  -0.00    -0.02   0.00   0.05    -0.03   0.00   0.05
    13   1     0.00   0.00  -0.00     0.05   0.63  -0.30     0.04   0.63  -0.30
    14   1     0.00  -0.00  -0.00     0.05  -0.63  -0.30    -0.04   0.63   0.30
    15   1     0.00   0.00  -0.00    -0.02  -0.00   0.05     0.03   0.00  -0.05
    16   1     0.01   0.01  -0.02     0.01   0.01  -0.01     0.01   0.01  -0.01
    17   1     0.00  -0.00   0.00    -0.00   0.00  -0.00     0.00  -0.00   0.00
    18   1     0.01  -0.01  -0.02     0.01  -0.01  -0.01    -0.01   0.01   0.01
    19   1     0.09   0.04   0.03    -0.02  -0.01  -0.01     0.02   0.01   0.01
    20   1     0.10  -0.30   0.62    -0.00   0.00  -0.00    -0.00   0.02  -0.04
    21   1     0.09  -0.04   0.03    -0.02   0.01  -0.01    -0.02   0.01  -0.01
    22   1     0.10   0.30   0.62    -0.00  -0.00  -0.00     0.00   0.02   0.04
                     55                     56                     57
                      A                      A                      A
 Frequencies --   3184.7026              3186.3996              3212.1814
 Red. masses --      1.0885                 1.0887                 1.0971
 Frc consts  --      6.5045                 6.5129                 6.6694
 IR Inten    --     14.5643                14.8890                15.9703
  Atom  AN      X      Y      Z        X      Y      Z        X      Y      Z
     1   6     0.00  -0.05  -0.02     0.00  -0.05  -0.02    -0.00   0.02   0.01
     2   6    -0.00   0.00   0.01    -0.00   0.00   0.01     0.00  -0.00  -0.01
     3   6    -0.00  -0.00   0.00    -0.00  -0.00   0.00    -0.00   0.00   0.00
     4   6    -0.00   0.00   0.00     0.00  -0.00  -0.00    -0.00  -0.00   0.00
     5   6    -0.00  -0.00   0.01     0.00   0.00  -0.01     0.00   0.00  -0.01
     6   6     0.01   0.01  -0.01     0.01   0.01  -0.01     0.03   0.03  -0.04
     7   6     0.00   0.05  -0.02    -0.00  -0.05   0.02    -0.00  -0.02   0.01
     8   6     0.01  -0.01  -0.01    -0.01   0.01   0.01     0.03  -0.03  -0.04
     9   6    -0.00   0.00  -0.00     0.00  -0.00   0.00     0.00   0.00  -0.00
    10   6    -0.00  -0.00  -0.00    -0.00  -0.00  -0.00     0.00  -0.00  -0.00
    11   1    -0.00   0.61   0.19    -0.00   0.61   0.18     0.00  -0.23  -0.07
    12   1     0.05  -0.01  -0.10     0.04  -0.01  -0.10    -0.07   0.01   0.14
    13   1     0.00   0.01  -0.01     0.00   0.01  -0.01     0.00  -0.00   0.00
    14   1     0.00  -0.01  -0.01    -0.00   0.01   0.01     0.00   0.00   0.00
    15   1     0.05   0.01  -0.10    -0.04  -0.01   0.10    -0.07  -0.01   0.14
    16   1    -0.13  -0.15   0.18    -0.14  -0.15   0.19    -0.32  -0.35   0.44
    17   1    -0.00  -0.61   0.19     0.00   0.61  -0.19     0.00   0.23  -0.07
    18   1    -0.13   0.15   0.18     0.14  -0.15  -0.19    -0.32   0.35   0.44
    19   1     0.00  -0.00  -0.00    -0.00  -0.00  -0.00    -0.00  -0.00  -0.00
    20   1     0.00  -0.00   0.01    -0.00   0.01  -0.01     0.00  -0.01   0.02
    21   1     0.00   0.00  -0.00     0.00  -0.00   0.00    -0.00   0.00  -0.00
    22   1     0.00   0.00   0.01     0.00   0.01   0.01     0.00   0.01   0.02
                     58                     59                     60
                      A                      A                      A
 Frequencies --   3212.3631              3232.5982              3233.4892
 Red. masses --      1.0974                 1.0969                 1.0977
[...]
 -0.00431800,-0.00575970,0.00033587,-0.00015431,-0.00033412,-0.00089302
 ,0.00076414,-0.00022112,-0.00220882,-0.00017027,-0.00087799,0.00023423
 ,-0.00031427,0.00103721,0.00138082,-0.00077603,-0.00145303,-0.00054986
 ,-0.00040234,-0.00028116,-0.00017497,0.00102450,-0.00047804,0.00076427
 ,-0.00050119,-0.00034947,0.13226375,-0.02161738,0.30384664,0.00399726,
 0.00017913,0.00143472,-0.00081577,-0.00514855,0.00266030,-0.03699732,-
 0.00438849,-0.01945304,-0.00914693,0.01577086,0.01503964,-0.00260001,-
 0.00445977,-0.00036834,-0.00305556,0.00131400,-0.00476638,-0.00082887,
 0.00118534,-0.00159396,-0.00062526,0.00115390,0.00155536,0.00210148,0.
 00057853,0.00071256,-0.00011194,-0.02004324,-0.00550487,0.00017695,-0.
 00022725,0.00007035,-0.00134907,0.00017488,0.00101225,0.04586734,0.000
 27014,-0.00400817,0.00189028,-0.00186470,-0.01602514,-0.01392627,-0.01
 220677,-0.27318904,-0.10634246,-0.00086197,-0.00015642,0.00062846,-0.0
 0025455,0.00042426,-0.00016719,0.00061435,-0.00042580,0.00081201,-0.00
 010238,0.00065193,0.00012258,-0.00023862,-0.00026461,0.00051072,0.0001
 0055,-0.00007995,-0.00024631,0.00129479,0.00119982,0.00152266,-0.00120
 750,-0.00049562,-0.00026446,-0.00017424,0.00077593,0.00063172,0.015178
 39,0.29018275,-0.00191865,0.00317026,-0.00350436,0.00287822,0.02093471
 ,0.01124366,-0.01848119,-0.11273791,-0.09558586,0.00459404,-0.01059158
 ,-0.00879831,0.00187701,0.00172408,0.00021603,-0.00322258,-0.00128036,
 -0.00220911,-0.00005232,-0.00030086,-0.00018255,0.00008922,0.00061679,
 -0.00041126,-0.00095829,-0.00017384,0.00021662,0.00476282,-0.01517986,
 -0.00556164,0.00091409,0.00060841,0.00037935,0.00082903,-0.00140223,-0
 .00011126,0.01057220,0.11483623,0.10221042,-0.00082900,-0.00118561,-0.
 00159406,-0.00259993,0.00445975,-0.00036880,-0.00914696,-0.01576938,0.
 01504144,-0.03699737,0.00439055,-0.01945555,-0.00081565,0.00514886,0.0
 0265974,-0.00062539,-0.00115391,0.00155568,0.00399710,-0.00017880,0.00
 143454,-0.00305563,-0.00131438,-0.00476612,-0.00011233,0.02004274,-0.0
 0550711,0.00210150,-0.00057846,0.00071264,0.00032406,-0.00015256,-0.00
 029306,0.00017554,-0.00015770,0.00002704,0.00143263,-0.00002533,-0.000
 53444,0.04586824,0.00010235,0.00065193,-0.00012272,0.00025472,0.000424
 17,0.00016716,0.00086231,-0.00015557,-0.00062911,0.01220884,-0.2731660
 8,0.10636111,0.00186535,-0.01602590,0.01392903,0.00023864,-0.00026475,
 -0.00051072,-0.00027028,-0.00400866,-0.00189021,-0.00061473,-0.0004257
 4,-0.00081223,-0.00129432,0.00120150,-0.00152341,-0.00010058,-0.000079
 94,0.00024636,-0.00007017,0.00005915,0.00005156,0.00004712,-0.00001078
 ,-0.00004869,0.00002529,0.00089208,0.00008656,-0.01518150,0.29015846,-
 0.00005227,0.00030081,-0.00018251,0.00187697,-0.00172419,0.00021625,0.
 00459415,0.01059093,-0.00879967,-0.01848470,0.11275670,-0.09560842,0.0
 0287839,-0.02093196,0.01124421,0.00008925,-0.00061682,-0.00041124,-0.0
 0191867,-0.00317021,-0.00350372,-0.00322245,0.00127999,-0.00220906,0.0
 0476256,0.01517911,-0.00556311,-0.00095837,0.00017389,0.00021661,-0.00
 015127,0.00002007,0.00011697,-0.00011514,0.00010887,0.00004054,-0.0005
 3446,-0.00008668,-0.00009203,0.01057591,-0.11485593,0.10223439,-0.0010
 5398,-0.00097616,-0.00296156,0.00213045,0.00232478,0.00108052,-0.00139
 573,-0.00102779,0.00166528,0.00272944,0.00057188,0.00124965,-0.0781097
 3,0.00010028,-0.12362470,-0.00344517,-0.00100140,0.00460034,-0.0047927
 7,-0.00347915,-0.01254147,0.00134173,0.00368723,-0.00016214,0.00181055
 ,-0.00011386,-0.00171707,0.00032683,-0.00047186,-0.00006316,0.00001022
 ,-0.00000844,-0.00008144,-0.00034300,0.00014310,0.00005462,0.00017554,
 -0.00004712,-0.00011514,-0.00134907,0.00017430,0.00082901,0.08314260,-
 0.00012540,-0.00017316,-0.00075531,0.00086005,-0.00005447,0.00067513,-
 0.00049292,-0.00049612,-0.00045784,-0.01145629,0.00532485,-0.01890373,
 0.00233394,-0.05599319,-0.02200058,-0.00086501,-0.00037004,0.00118972,
 0.00592519,0.00827421,0.01932504,0.00262219,-0.00353419,0.00289831,0.0
 0136053,-0.00355568,-0.00350193,0.00044004,0.00006279,-0.00043922,0.00
 003377,0.00000246,0.00000515,-0.00014310,0.00001023,0.00002462,0.00015
 773,-0.00001079,-0.00010889,-0.00017482,0.00077604,0.00140217,0.000346
 27,0.04834377,0.00023427,0.00031442,0.00103740,-0.00089310,-0.00076426
 ,-0.00022121,0.00033602,0.00015436,-0.00033419,-0.00658022,0.00431690,
 -0.00575798,-0.12382900,-0.01958686,-0.29236793,0.00138111,0.00077606,
 -0.00145347,-0.00084294,-0.00558835,-0.00317115,-0.00220896,0.00017038
 ,-0.00087844,-0.00017509,-0.00102411,-0.00047757,-0.00054996,0.0004022
 9,-0.00028113,0.00000588,-0.00000832,0.00001721,0.00005465,-0.00002463
 ,0.00005179,0.00002702,0.00004869,0.00004054,0.00101228,-0.00063180,-0
 .00011134,0.13226342,0.02164476,0.30384361,-0.00093240,-0.00668194,-0.
 00378177,0.00291339,0.00030792,-0.00481122,-0.00081206,-0.00031298,-0.
 00109588,0.00039302,0.00009805,0.00034593,-0.00017943,0.00014486,-0.00
 049589,-0.10468232,-0.07989583,-0.11201025,0.00050136,-0.00049588,0.00
 043503,-0.00010481,-0.00002233,-0.00050697,0.00019117,0.00048761,0.000
 08662,0.00246403,0.00292556,0.00398928,-0.00270222,0.00071327,0.001811
 36,0.00034722,-0.00111844,-0.00033625,0.00061822,-0.00011001,-0.000870
 18,-0.00004166,-0.00009873,-0.00006577,0.00001488,-0.00014100,0.000190
 97,0.10235394,0.00705828,0.01027102,0.00864073,0.00061841,-0.00086743,
 0.00306050,0.00131976,-0.00559912,-0.00013438,0.00041651,-0.00006636,-
 0.00021218,0.00018486,-0.00010306,-0.00012342,-0.07907042,-0.14168136,
 -0.10726983,-0.00011793,0.00022041,-0.00005495,-0.00019873,-0.00006932
 ,0.00025185,-0.00002218,0.00013009,-0.00003165,-0.01407862,-0.00457867
 ,-0.01746474,-0.00009258,0.00023871,-0.00113013,0.00013426,0.00086774,
 0.00027753,-0.00152407,0.00005405,-0.00091000,0.00003977,0.00004883,-0
 .00005574,-0.00011124,-0.00001625,0.00012961,0.08486874,0.14063365,-0.
 01035206,-0.01770973,-0.00815903,-0.00332069,0.00223297,-0.00210731,0.
 00059547,0.00208879,0.00031194,-0.00000537,-0.00001592,-0.00026495,0.0
 0002346,0.00008245,0.00059268,-0.10784697,-0.10313897,-0.18140776,-0.0
 0027639,0.00016214,-0.00027408,0.00010646,0.00015334,0.00030256,-0.000
 07405,-0.00028491,-0.00001928,0.00257083,0.00312201,0.00245026,0.00209
 908,0.00013438,-0.00040764,-0.00082485,-0.00067633,-0.00018204,-0.0001
 8419,0.00001934,0.00088716,-0.00001663,0.00005850,0.00008349,-0.000102
 65,0.00001614,0.00003611,0.11767168,0.11463022,0.18768134,0.00024421,-
 0.00010540,0.00027914,-0.00017720,-0.00005926,0.00012458,-0.00003237,-
 0.00110640,-0.00045665,0.00304094,0.00323011,-0.00470918,0.00163560,0.
 01381974,0.00592844,0.00046833,-0.00000156,-0.00056154,-0.04187755,-0.
 00099869,-0.00685246,0.00320248,-0.01288306,-0.00295983,0.00500991,0.0
 0020667,-0.00619396,-0.00001299,0.00002780,0.00001411,-0.00013858,-0.0
 0004197,0.00011743,0.00001021,-0.00003377,0.00000588,0.00032404,0.0000
 7015,-0.00015126,0.00017693,0.00120760,0.00091398,-0.00160832,-0.00098
 416,0.00076426,-0.00010062,0.00001883,0.00001979,0.03253004,-0.0001202
 7,-0.00020656,-0.00016545,-0.00010854,0.00026168,-0.00035419,-0.000409
 85,-0.00028596,0.00037026,0.00145730,-0.00239936,0.00126360,-0.0034339
 1,-0.01138562,-0.00992116,-0.00010242,0.00032301,0.00040748,0.00192399
 ,-0.31449503,-0.07896206,0.00178285,-0.00368054,0.00148015,0.00144888,
 0.00035682,-0.00147191,0.00004209,-0.00006482,-0.00006112,0.00004198,0
 .00016134,-0.00007441,0.00000842,0.00000246,0.00000832,0.00015254,0.00
 005914,-0.00002007,0.00022727,-0.00049562,-0.00060829,-0.00010175,0.00
 036675,0.00050113,0.00013364,0.00000511,-0.00002552,-0.00195602,0.3315
 9023,-0.00004453,-0.00007470,0.00005619,0.00018794,-0.00016352,0.00001
 458,0.00049467,0.00080794,-0.00011602,-0.00435212,0.00243076,0.0001002
 3,0.00165333,0.01323999,0.00959257,-0.00009567,0.00003701,0.00035573,-
 0.00852603,-0.07689696,-0.07978587,0.00097644,-0.02467067,0.00188907,-
 0.00425011,-0.00165429,-0.00204735,0.00003347,-0.00001035,-0.00007377,
 0.00011743,0.00007439,-0.00006709,-0.00008143,-0.00000516,0.00001721,-
 0.00029307,-0.00005156,0.00011697,0.00007033,0.00026453,0.00037936,0.0
 0129610,-0.00059977,-0.00034945,-0.00000135,-0.00002758,-0.00001374,0.
 01107322,0.08768557,0.07053870,0.00050129,0.00049586,0.00043492,-0.000
 17935,-0.00014494,-0.00049572,0.00039306,-0.00009802,0.00034595,-0.000
 81185,0.00031301,-0.00109587,0.00291345,-0.00030851,-0.00481135,-0.000
 10479,0.00002228,-0.00050686,-0.00093268,0.00668188,-0.00378283,-0.104
 68990,0.07988718,-0.11202149,0.00246373,-0.00292491,0.00398887,0.00019
 122,-0.00048764,0.00008662,-0.00010060,-0.00013363,-0.00000134,0.00001
 486,0.00014101,0.00019093,-0.00004165,0.00009870,-0.00006577,0.0006181
 0,0.00010992,-0.00087019,0.00034712,0.00111846,-0.00033637,0.00002997,
 0.00002016,-0.00001807,-0.00270222,-0.00071318,0.00181151,0.10236192,0
 .00011792,0.00022040,0.00005491,-0.00018482,-0.00010307,0.00012350,-0.
 00041645,-0.00006633,0.00021215,-0.00131959,-0.00559926,0.00013495,-0.
 00061873,-0.00086803,-0.00306070,0.00019876,-0.00006934,-0.00025182,-0
 .00705971,0.01027191,-0.00864260,0.07906252,-0.14165657,0.10726178,0.0
 1407919,-0.00457700,0.01746540,0.00002217,0.00013010,0.00003164,-0.000
 01883,0.00000512,0.00002758,0.00011121,-0.00001625,-0.00012958,-0.0000
 3977,0.00004883,0.00005574,0.00152408,0.00005416,0.00091002,-0.0001343
 5,0.00086781,-0.00027764,-0.00002017,0.00002909,0.00000721,0.00009273,
 0.00023879,0.00113011,-0.08485992,0.14060671,-0.00027637,-0.00016217,-
 0.00027405,0.00002343,-0.00008233,0.00059259,-0.00000537,0.00001591,-0
 .00026501,0.00059559,-0.00208825,0.00031213,-0.00332071,-0.00223305,-0
 .00210654,0.00010644,-0.00015331,0.00030255,-0.01035182,0.01770740,-0.
 00815957,-0.10785863,0.10313107,-0.18142521,0.00256959,-0.00312126,0.0
 0244889,-0.00007409,0.00028495,-0.00001929,0.00001979,0.00002552,-0.00
 001375,-0.00010263,-0.00001614,0.00003610,-0.00001663,-0.00005849,0.00
 008348,-0.00018431,-0.00001925,0.00088708,-0.00082488,0.00067613,-0.00
 018203,-0.00001807,-0.00000721,0.00001566,0.00209916,-0.00013437,-0.00
 040784,0.11768436,-0.11462124,0.18770018,-0.00058753,0.00002709,-0.000
 43988,-0.00024213,0.00178756,-0.00122484,-0.00325326,-0.00154604,0.000
 01288,-0.01927953,-0.00805182,0.00703745,0.00002765,0.00189309,-0.0000
 4381,-0.00065475,-0.00003192,-0.00003319,0.00079183,0.00047355,0.00095
 416,0.00325794,-0.00164595,-0.00110904,-0.22160375,-0.07053175,0.08098
 271,-0.00045260,-0.00078781,0.00047908,-0.00000908,-0.00009811,-0.0000
 0354,0.00021090,-0.00002486,-0.00002066,0.00035991,0.00006028,-0.00016
 869,0.00084428,0.00062611,0.00006336,0.00005090,-0.00007740,-0.0002409
 5,0.00007826,-0.00003704,-0.00009226,-0.00020978,-0.00015201,0.0000429
 7,-0.00037865,-0.00056066,-0.00005562,0.24527469,-0.00024289,0.0002108
 3,-0.00034010,-0.00050175,-0.00016954,0.00035986,0.00108779,0.00018079
 ,0.00121754,0.00750128,0.00221436,-0.00233665,-0.00041017,0.00012754,0
 .00072947,0.00004138,-0.00041038,-0.00034115,0.00184253,-0.00255571,0.
 00265864,-0.02717794,-0.01745307,0.00719236,-0.07604447,-0.06716304,0.
 03082364,0.00046238,0.00006122,-0.00016138,0.00003125,0.00000472,0.000
 00815,0.00013315,-0.00005915,0.00007629,-0.00017699,0.00015199,0.00020
 241,-0.00018670,0.00025259,-0.00029949,-0.00005660,0.00001154,0.000004
 10,-0.00013065,0.00005218,0.00007730,0.00140267,0.00016665,-0.00098538
 ,0.00080409,-0.00020114,-0.00002033,0.08006633,0.07932410,-0.00067850,
 -0.00083985,-0.00166141,0.00112659,0.00203784,-0.00031973,-0.00192850,
 -0.00075584,0.00044670,-0.01566767,-0.00729519,0.00435169,0.00135564,-
 0.00142133,0.00139383,-0.00113836,-0.00035024,0.00160579,-0.00288900,0
 .00094992,-0.00262954,0.00168384,0.00405112,0.00046029,0.08161096,0.02
 792153,-0.07928307,0.00021804,-0.00025819,-0.00011787,0.00005373,-0.00
 000255,-0.00007040,-0.00037824,0.00009189,0.00042938,0.00001346,0.0001
 6318,0.00008008,0.00066093,0.00023005,0.00088117,0.00017817,0.00007780
 ,-0.00027879,-0.00008252,0.00000116,0.00007098,0.00031075,0.00003922,-
 0.00024144,-0.00019066,0.00040941,0.00021765,-0.08853758,-0.03439417,0
 .08578363,0.00030146,0.00000423,0.00039449,-0.00061290,-0.00071576,-0.
 00002006,0.00018500,-0.00058558,-0.00208419,0.00157103,-0.01215597,-0.
 01778919,-0.00360201,0.00215136,-0.00404158,0.00041639,0.00028438,-0.0
 0018492,0.00181742,-0.00007678,0.00064047,-0.00219575,-0.00255208,0.00
 092558,-0.05047224,0.02088196,0.03609705,-0.00014507,0.00029585,0.0001
 4064,0.00000799,0.00004497,0.00003454,-0.00025667,-0.00037774,0.000044
 93,-0.00020249,0.00033324,-0.00008102,-0.00012279,0.00030132,0.0000394
 1,0.00006330,-0.00114069,-0.00063753,0.00009453,0.00000312,-0.00002536
 ,0.00021803,-0.00017416,-0.00014408,-0.00006582,-0.00000948,0.00010842
 ,-0.00415934,0.01137365,0.02430906,0.05716367,-0.00042694,-0.00016289,
 -0.00058722,0.00014305,0.00011470,-0.00032954,-0.00011122,0.00046117,0
 .00056790,-0.00205739,0.00328786,0.00707853,0.00242106,-0.00072431,0.0
 0073846,-0.00017422,-0.00033608,0.00033543,0.00070551,-0.00597561,-0.0
 0026835,0.00280309,-0.00955391,-0.02911066,0.01813903,-0.09387868,-0.0
 9920235,0.00009465,-0.00007012,0.00002229,0.00002412,-0.00000613,-0.00
 001254,-0.00031651,-0.00018019,0.00043102,-0.00009419,0.00004124,0.000
 10970,-0.00004497,-0.00007903,-0.00006116,-0.00000145,0.00040288,-0.00
 004958,-0.00005753,0.00001479,0.00006070,-0.00185062,-0.00051707,-0.00
 053476,-0.00020994,0.00061711,0.00101441,-0.00124248,0.00500338,0.0095
 2932,-0.01779670,0.10142286,0.00003841,-0.00026461,-0.00045873,0.00057
 706,0.00069940,0.00099332,0.00179189,-0.00020842,-0.00054892,0.0040984
 0,-0.00804912,-0.01344859,-0.00205602,-0.00012148,-0.00214682,0.000416
 43,-0.00028027,0.00059459,0.00009652,0.00129106,-0.00132352,-0.0007524
 6,0.00193473,0.00513133,0.03259188,-0.10030916,-0.25499377,0.00026918,
 0.00060615,-0.00012827,0.00006232,0.00000659,-0.00005436,-0.00013161,0
 .00010179,0.00046612,-0.00058930,0.00044177,0.00052313,-0.00045460,0.0
 0025417,-0.00042227,-0.00051300,-0.00097414,-0.00005750,-0.00020589,0.
 00005825,0.00013718,0.00011810,0.00004687,0.00016672,-0.00005823,-0.00
 078138,0.00004877,0.00258661,-0.00465626,-0.01095518,-0.03780242,0.110
 23628,0.27644301,0.00079198,-0.00047334,0.00095436,0.00002767,-0.00189
 316,-0.00004365,-0.01927949,0.00805180,0.00703646,-0.00325333,0.001546
 03,0.00001276,-0.00024218,-0.00178766,-0.00122469,0.00325696,0.0016463
 8,-0.00110890,-0.00058753,-0.00002719,-0.00043981,-0.00065469,0.000031
 88,-0.00003326,-0.00045262,0.00078785,0.00047905,-0.22161086,0.0705355
 1,0.08097676,-0.00020975,0.00015200,0.00004292,0.00005091,0.00007737,-
 0.00024097,0.00084426,-0.00062608,0.00006340,0.00035993,-0.00006030,-0
 .00016871,0.00021091,0.00002487,-0.00002067,-0.00037863,0.00056065,-0.
 00005569,-0.00000909,0.00009811,-0.00000355,0.00007827,0.00003704,-0.0
 0009228,-0.00003857,0.00014081,-0.00003231,-0.00002737,0.00000532,-0.0
 0015683,0.24528243,-0.00184257,-0.00255601,-0.00265866,0.00041025,0.00
 012763,-0.00072931,-0.00750344,0.00221525,0.00233699,-0.00108804,0.000
 18070,-0.00121760,0.00050190,-0.00016986,-0.00035986,0.02717862,-0.017
 45321,-0.00719049,0.00024287,0.00021096,0.00033990,-0.00004146,-0.0004
 1036,0.00034132,-0.00046239,0.00006128,0.00016140,0.07604822,-0.067163
 98,-0.03082178,-0.00140262,0.00016671,0.00098524,0.00005662,0.00001153
 ,-0.00000413,0.00018680,0.00025255,0.00029955,0.00017700,0.00015197,-0
 .00020243,-0.00013319,-0.00005917,-0.00007624,-0.00080410,-0.00020118,
 0.00002036,-0.00003125,0.00000472,-0.00000816,0.00013063,0.00005218,-0
 .00007730,-0.00014083,0.00018753,-0.00016958,-0.00004085,0.00006260,-0
 .00001561,-0.08007039,0.07932554,-0.00288878,-0.00095000,-0.00262923,0
 .00135536,0.00142155,0.00139382,-0.01566734,0.00729497,0.00435073,-0.0
 0192845,0.00075588,0.00044671,0.00112654,-0.00203787,-0.00031951,0.001
 68157,-0.00404954,0.00046125,-0.00067850,0.00083965,-0.00166145,-0.001
 13826,0.00035034,0.00160565,0.00021804,0.00025819,-0.00011789,0.081604
 46,-0.02791968,-0.07927650,0.00031088,-0.00003926,-0.00024151,0.000178
 21,-0.00007784,-0.00027879,0.00066094,-0.00022999,0.00088113,0.0000134
 6,-0.00016320,0.00008012,-0.00037824,-0.00009186,0.00042940,-0.0001905
 8,-0.00040937,0.00021768,0.00005373,0.00000254,-0.00007040,-0.00008253
 ,-0.00000116,0.00007100,-0.00003231,0.00016955,-0.00012703,0.00000218,
 0.00001549,-0.00003675,-0.08853079,0.03439160,0.08577604,0.00181747,0.
 00007708,0.00064044,-0.00360182,-0.00215182,-0.00404132,0.00157081,0.0
 1215431,-0.01778994,0.00018491,0.00058538,-0.00208426,-0.00061292,0.00
 071577,-0.00002014,-0.00219581,0.00255237,0.00092440,0.00030144,-0.000
 00421,0.00039446,0.00041636,-0.00028437,-0.00018487,-0.00014506,-0.000
 29583,0.00014067,-0.05047198,-0.02087819,0.03609794,0.00021798,0.00017
 416,-0.00014412,0.00006330,0.00114060,-0.00063764,-0.00012274,-0.00030
 132,0.00003950,-0.00020254,-0.00033326,-0.00008101,-0.00025669,0.00037
 774,0.00004490,-0.00006584,0.00000946,0.00010845,0.00000800,-0.0000449
 7,0.00003454,0.00009453,-0.00000312,-0.00002536,-0.00002737,0.00004085
 ,0.00000218,0.00002360,0.00004831,0.00007358,-0.00415921,-0.01137177,0
 .02431041,0.05716357,-0.00070525,-0.00597578,0.00026885,-0.00242133,-0
 .00072448,-0.00073875,0.00205782,0.00328837,-0.00708062,0.00011135,0.0
 0046111,-0.00056803,-0.00014306,0.00011460,0.00032968,-0.00280313,-0.0
 0955125,0.02911193,0.00042699,-0.00016279,0.00058715,0.00017425,-0.000
 33610,-0.00033535,-0.00009461,-0.00007018,-0.00002229,-0.01813555,-0.0
 9386172,0.09918821,0.00185059,-0.00051696,0.00053492,0.00000139,0.0004
 0302,0.00004951,0.00004495,-0.00007904,0.00006115,0.00009411,0.0000412
 0,-0.00010966,0.00031650,-0.00018027,-0.00043093,0.00020993,0.00061709
 ,-0.00101445,-0.00002411,-0.00000613,0.00001253,0.00005750,0.00001478,
 -0.00006068,-0.00000534,0.00006260,-0.00001550,-0.00004831,0.00005545,
 -0.00001661,0.00124250,0.00500261,-0.00953001,0.01779281,0.10140386,0.
 00009666,-0.00129061,-0.00132341,-0.00205592,0.00012128,-0.00214682,0.
 00409827,0.00804790,-0.01344885,0.00179185,0.00020840,-0.00054889,0.00
 057709,-0.00069935,0.00099336,-0.00075216,-0.00193344,0.00512878,0.000
 03839,0.00026459,-0.00045882,0.00041641,0.00028035,0.00059456,0.000269
 18,-0.00060615,-0.00012821,0.03259238,0.10029497,-0.25501098,0.0001179
 0,-0.00004680,0.00016669,-0.00051300,0.00097411,-0.00005761,-0.0004545
 7,-0.00025423,-0.00042222,-0.00058929,-0.00044175,0.00052320,-0.000131
 65,-0.00010170,0.00046611,-0.00005828,0.00078132,0.00004879,0.00006232
 ,-0.00000660,-0.00005436,-0.00020589,-0.00005825,0.00013720,-0.0001568
 3,0.00001560,-0.00003675,0.00007359,0.00001661,0.00007051,0.00258636,0
 .00465479,-0.01095447,-0.03780280,-0.11022104,0.27646218\\-0.00019661,
 -0.00038617,-0.00077271,-0.00173322,0.00093043,0.00063578,-0.00502586,
 -0.00005903,0.00401621,0.00502602,-0.00005939,-0.00401642,0.00173313,0
 .00093074,-0.00063586,-0.00148255,-0.00024551,0.00057366,0.00019672,-0
 .00038671,0.00077253,0.00148255,-0.00024540,-0.00057349,0.00076130,-0.
 00024160,-0.00044834,-0.00076197,-0.00024144,0.00044869,0.00014661,-0.
 00005783,-0.00013030,0.00003430,-0.00002885,-0.00002615,-0.00001698,0.
 00013002,0.00009443,0.00001694,0.00012988,-0.00009438,-0.00003423,-0.0
 0002882,0.00002640,-0.00009113,0.00000039,0.00001009,-0.00014665,-0.00
 005740,0.00013050,0.00009111,0.00000043,-0.00001017,0.00017747,-0.0000
 2397,0.00017417,-0.00012219,-0.00001790,-0.00006419,-0.00017697,-0.000
 02414,-0.00017445,0.00012222,-0.00001773,0.00006402\\\@


 THEREFORE SHALL EVIL COME UPON THEE...
 THOU SHALT NOT KNOW FROM WHENCE IT RISETH...
 AND MISCHIEF SHALL FALL UPON THEE...
 THOU SHALT NOT BE ABLE TO PUT IT OFF...
 AND DESOLATION SHALL COME UPON THEE SUDDENLY...
 WHICH THOU SHALT NOT KNOW...

                                         ISAIAH 47.11
 Job cpu time:       0 days  1 hours  4 minutes  0.7 seconds.
 Elapsed time:       0 days  0 hours  0 minutes 41.1 seconds.
 File lengths (MBytes):  RWF=    182 Int=      0 D2E=      0 Chk=     10 Scr=      1
 Normal termination of Gaussian 16 at Mon Jul 28 00:17:19 2025.
