 Entering Gaussian System, Link 0=g16
 Initial command:
 /home/hongchang/data/software/Gaussian/g16/l1.exe "/home/hongchang/data/software/Gaussian/g16/scratch/Gau-1383593.inp" -scrdir="/home/hongchang/data/software/Gaussian/g16/scratch/"
 Entering Link 1 = /home/hongchang/data/software/Gaussian/g16/l1.exe PID=   1383594.
  
 Copyright (c) 1988,1990,1992,1993,1995,1998,2003,2009,2016,
            Gaussian, Inc.  All Rights Reserved.
  
 This is part of the Gaussian(R) 16 program.  It is based on
 the Gaussian(R) 09 system (copyright 2009, Gaussian, Inc.),
 the Gaussian(R) 03 system (copyright 2003, Gaussian, Inc.),
 the Gaussian(R) 98 system (copyright 1998, Gaussian, Inc.),
 the Gaussian(R) 94 system (copyright 1995, Gaussian, Inc.),
 the Gaussian 92(TM) system (copyright 1992, Gaussian, Inc.),
 the Gaussian 90(TM) system (copyright 1990, Gaussian, Inc.),
 the Gaussian 88(TM) system (copyright 1988, Gaussian, Inc.),
 the Gaussian 86(TM) system (copyright 1986, Carnegie Mellon
 University), and the Gaussian 82(TM) system (copyright 1983,
 Carnegie Mellon University). Gaussian is a federally registered
 trademark of Gaussian, Inc.
  
 This software contains proprietary and confidential information,
 including trade secrets, belonging to Gaussian, Inc.
  
 This software is provided under written license and may be
 used, copied, transmitted, or stored only in accord with that
 written license.
  
 The following legend is applicable only to US Government
 contracts under FAR:
  
                    RESTRICTED RIGHTS LEGEND
  
 Use, reproduction and disclosure by the US Government is
 subject to restrictions as set forth in subparagraphs (a)
 and (c) of the Commercial Computer Software - Restricted
 Rights clause in FAR 52.227-19.
  
 Gaussian, Inc.
 340 Quinnipiac St., Bldg. 40, Wallingford CT 06492
  
  
 ---------------------------------------------------------------
 Warning -- This program may not be used in any manner that
 competes with the business of Gaussian, Inc. or will provide
 assistance to any competitor of Gaussian, Inc.  The licensee
 of this program is prohibited from giving any competitor of
 Gaussian, Inc. access to this program.  By using this program,
 the user acknowledges that Gaussian, Inc. is engaged in the
 business of creating and licensing software in the field of
 computational chemistry and represents and warrants to the
 licensee that it is not a competitor of Gaussian, Inc. and that
 it will not use this program in any manner prohibited above.
 ---------------------------------------------------------------
  

 Cite this work as:
 Gaussian 16, Revision A.03,
 M. J. Frisch, G. W. Trucks, H. B. Schlegel, G. E. Scuseria, 
 M. A. Robb, J. R. Cheeseman, G. Scalmani, V. Barone, 
 G. A. Petersson, H. Nakatsuji, X. Li, M. Caricato, A. V. Marenich, 
 J. Bloino, B. G. Janesko, R. Gomperts, B. Mennucci, H. P. Hratchian, 
 J. V. Ortiz, A. F. Izmaylov, J. L. Sonnenberg, D. Williams-Young, 
 F. Ding, F. Lipparini, F. Egidi, J. Goings, B. Peng, A. Petrone, 
 T. Henderson, D. Ranasinghe, V. G. Zakrzewski, J. Gao, N. Rega, 
 G. Zheng, W. Liang, M. Hada, M. Ehara, K. Toyota, R. Fukuda, 
 J. Hasegawa, M. Ishida, T. Nakajima, Y. Honda, O. Kitao, H. Nakai, 
 T. Vreven, K. Throssell, J. A. Montgomery, Jr., J. E. Peralta, 
 F. Ogliaro, M. J. Bearpark, J. J. Heyd, E. N. Brothers, K. N. Kudin, 
 V. N. Staroverov, T. A. Keith, R. Kobayashi, J. Normand, 
 K. Raghavachari, A. P. Rendell, J. C. Burant, S. S. Iyengar, 
 J. Tomasi, M. Cossi, J. M. Millam, M. Klene, C. Adamo, R. Cammi, 
 J. W. Ochterski, R. L. Martin, K. Morokuma, O. Farkas, 
 J. B. Foresman, and D. J. Fox, Gaussian, Inc., Wallingford CT, 2016.
 
 ******************************************
 Gaussian 16:  ES64L-G16RevA.03 25-Dec-2016
                28-Jul-2025 
 ******************************************
 %nprocshared=96
 Will use up to   96 processors via shared memory.
 %mem=600GB
 %chk=01_02_path2_2.chk
 -----------------------------------------------------------
 # freq b3lyp/6-311g(d,p) em=gd3bj scrf(solvent=Cis-Decalin)
 -----------------------------------------------------------
 1/10=4,30=1,38=1/1,3;
 2/12=2,17=6,18=5,40=1/2;
 3/5=4,6=6,7=101,11=2,25=1,30=1,70=2201,71=2,72=99,74=-5,124=41,140=1/1,2,3;
 4//1;
 5/5=2,38=5,53=99,98=1/2;
 8/6=4,10=90,11=11/1;
 11/6=1,8=1,9=11,15=111,16=1/1,2,10;
 10/6=1/2;
 6/7=2,8=2,9=2,10=2,28=1/1;
 7/8=1,10=1,25=1/1,2,3,16;
 1/10=4,30=1/3;
 99//99;
 -------------
 01_02_path2_2
 -------------
 Symbolic Z-matrix:
 Charge =  0 Multiplicity = 1
 C                    -1.35951  -1.15889   0.66692 
 C                    -0.71555  -0.10623   1.35891 
 C                    -0.76821   1.06764   0.54339 
 C                     0.76818   1.06759  -0.54349 
 C                     0.71553  -0.10636  -1.35889 
 C                    -1.91133  -0.68951  -0.49602 
 C                     1.35953  -1.15895  -0.6668 
 C                     1.91137  -0.68944   0.49608 
 C                     1.87751   0.81336   0.47494 
 C                    -1.87752   0.81328  -0.47503 
 H                    -1.34611  -2.19583   0.97805 
 H                    -0.25357  -0.18111   2.33142 
 H                    -0.69123   2.04778   1.0044 
 H                     0.69119   2.04768  -1.0046 
 H                     0.25355  -0.18134  -2.33139 
 H                    -2.44083  -1.27662  -1.23359 
 H                     1.34615  -2.19591  -0.97783 
 H                     2.4409   -1.27645   1.23369 
 H                     2.82676   1.19718   0.07194 
 H                     1.71847   1.28708   1.44488 
 H                    -2.82678   1.19711  -0.07207 
 H                    -1.71848   1.28693  -1.44501 
 

 GradGradGradGradGradGradGradGradGradGradGradGradGradGradGradGradGradGrad
 Berny optimization.
 Initialization pass.
 Trust Radius=3.00D-01 FncErr=1.00D-07 GrdErr=1.00D-07 EigMax=2.50D+02 EigMin=1.00D-04
 Number of steps in this run=      2 maximum allowed number of steps=      2.
 GradGradGradGradGradGradGradGradGradGradGradGradGradGradGradGradGradGrad

                          Input orientation:                          
 ---------------------------------------------------------------------
 Center     Atomic      Atomic             Coordinates (Angstroms)
 Number     Number       Type             X           Y           Z
 ---------------------------------------------------------------------
      1          6           0       -1.359509   -1.158894    0.666920
      2          6           0       -0.715545   -0.106229    1.358912
      3          6           0       -0.768210    1.067635    0.543393
      4          6           0        0.768183    1.067585   -0.543492
      5          6           0        0.715525   -0.106364   -1.358889
      6          6           0       -1.911329   -0.689513   -0.496024
      7          6           0        1.359529   -1.158946   -0.666803
      8          6           0        1.911366   -0.689435    0.496077
      9          6           0        1.877509    0.813358    0.474944
     10          6           0       -1.877519    0.813283   -0.475030
     11          1           0       -1.346114   -2.195828    0.978053
     12          1           0       -0.253567   -0.181106    2.331418
     13          1           0       -0.691230    2.047777    1.004402
     14          1           0        0.691186    2.047678   -1.004604
     15          1           0        0.253549   -0.181344   -2.331389
     16          1           0       -2.440831   -1.276616   -1.233591
     17          1           0        1.346152   -2.195911   -0.977832
     18          1           0        2.440896   -1.276453    1.233694
     19          1           0        2.826755    1.197176    0.071938
     20          1           0        1.718468    1.287084    1.444878
     21          1           0       -2.826781    1.197108   -0.072065
     22          1           0       -1.718484    1.286926   -1.445005
 ---------------------------------------------------------------------
                    Distance matrix (angstroms):
                    1          2          3          4          5
     1  C    0.000000
     2  C    1.414795   0.000000
     3  C    2.307016   1.430315   0.000000
     4  C    3.308985   2.682989   1.881973   0.000000
     5  C    3.085043   3.071547   2.682987   1.430315   0.000000
     6  C    1.370132   2.282741   2.339803   3.204595   2.825767
     7  C    3.028528   3.085072   3.309004   2.307019   1.414798
     8  C    3.308807   2.825823   3.204631   2.339806   2.282741
     9  C    3.795381   2.889804   2.658791   1.527235   2.357761
    10  C    2.337064   2.357759   1.527235   2.658777   2.889781
    11  H    1.082689   2.215648   3.342618   4.175550   3.752001
    12  H    2.224799   1.079258   2.240813   3.296712   3.816162
    13  H    3.292906   2.183119   1.085879   2.342357   3.493484
    14  H    4.157096   3.493482   2.342353   1.085880   2.183119
    15  H    3.542233   3.816164   3.296712   2.240814   1.079259
    16  H    2.189762   3.326784   3.383910   4.033520   3.368646
    17  H    3.331849   3.752031   4.175570   3.342620   2.215649
    18  H    3.844233   3.368712   4.033562   3.383914   3.326785
    19  H    4.840442   3.987864   3.628061   2.152502   2.864223
    20  H    4.007739   2.805910   2.654129   2.214687   3.287659
    21  H    2.872235   2.864210   2.152502   3.628055   3.987842
    22  H    3.251327   3.287661   2.214686   2.654119   2.805900
                    6          7          8          9         10
     6  C    0.000000
     7  C    3.308783   0.000000
     8  C    3.949337   1.370129   0.000000
     9  C    4.190071   2.337065   1.503323   0.000000
    10  C    1.503323   3.795385   4.190091   3.873330   0.000000
    11  H    2.182053   3.331843   3.621146   4.438475   3.383577
    12  H    3.316788   3.542256   2.883368   2.996154   3.391486
    13  H    3.351519   4.157116   3.811067   2.898713   2.262736
    14  H    3.811030   3.292906   3.351518   2.262735   2.898694
    15  H    2.883314   2.224802   3.316787   3.391487   2.996131
    16  H    1.081234   3.844194   4.719974   5.092656   2.293559
    17  H    3.621126   1.082689   2.182051   3.383578   4.438481
    18  H    4.719988   2.189761   1.081236   2.293560   5.092685
    19  H    5.131434   2.872247   2.139423   1.100363   4.751499
    20  H    4.566121   3.251322   2.200923   1.091092   4.103859
    21  H    2.139423   4.840444   5.131459   4.751508   1.100364
    22  H    2.200924   4.007749   4.566138   4.103856   1.091092
                   11         12         13         14         15
    11  H    0.000000
    12  H    2.661646   0.000000
    13  H    4.293920   2.630673   0.000000
    14  H    5.107726   4.121781   2.438684   0.000000
    15  H    4.191596   4.690302   4.121782   2.630670   0.000000
    16  H    2.633387   4.323604   4.372791   4.573062   3.108772
    17  H    3.327729   4.191620   5.107746   4.293920   2.661650
    18  H    3.905387   3.108844   4.573105   4.372792   4.323606
    19  H    5.454022   4.061194   3.737543   2.538297   3.781228
    20  H    4.662646   2.613514   2.565018   2.762928   4.308417
    21  H    3.848004   3.781221   2.538306   3.737538   4.061171
    22  H    4.259043   4.308419   2.762922   2.564996   2.613505
                   16         17         18         19         20
    16  H    0.000000
    17  H    3.905350   0.000000
    18  H    5.469804   2.633385   0.000000
    19  H    5.964186   3.848018   2.759965   0.000000
    20  H    5.571941   4.259037   2.671745   1.766734   0.000000
    21  H    2.759966   5.454023   5.964221   5.655370   4.792546
    22  H    2.671746   4.662660   5.571964   4.792533   4.490441
                   21         22
    21  H    0.000000
    22  H    1.766735   0.000000
 Stoichiometry    C10H12
 Framework group  C1[X(C10H12)]
 Deg. of freedom    60
 Full point group                 C1      NOp   1
 Largest Abelian subgroup         C1      NOp   1
 Largest concise Abelian subgroup C1      NOp   1
                         Standard orientation:                         
 ---------------------------------------------------------------------
 Center     Atomic      Atomic             Coordinates (Angstroms)
 Number     Number       Type             X           Y           Z
 ---------------------------------------------------------------------
      1          6           0        1.354782    1.171012    0.676445
      2          6           0        0.705956    0.118369    1.363915
      3          6           0        0.764360   -1.055519    0.548822
      4          6           0       -0.764340   -1.055496   -0.548857
      5          6           0       -0.705936    0.118428   -1.363898
      6          6           0        1.914778    0.701594   -0.482570
      7          6           0       -1.354795    1.171033   -0.676396
      8          6           0       -1.914810    0.701559    0.482582
      9          6           0       -1.880810   -0.801235    0.461733
     10          6           0        1.880815   -0.801201   -0.461770
     11          1           0        1.339200    2.207955    0.987445
     12          1           0        0.237140    0.193277    2.333141
     13          1           0        0.684131   -2.035647    1.009307
     14          1           0       -0.684100   -2.035603   -1.009386
     15          1           0       -0.237121    0.193378   -2.333122
     16          1           0        2.449464    1.288674   -1.216406
     17          1           0       -1.339224    2.207989   -0.987354
     18          1           0       -2.449520    1.288600    1.216434
     19          1           0       -2.827196   -1.185062    0.052062
     20          1           0       -1.728607   -1.274933    1.432777
     21          1           0        2.827214   -1.185017   -0.052117
     22          1           0        1.728614   -1.274872   -1.432827
 ---------------------------------------------------------------------
 Rotational constants (GHZ):           2.4022322           1.3387323           1.2732649
 Standard basis: 6-311G(d,p) (5D, 7F)
 There are   262 symmetry adapted cartesian basis functions of A   symmetry.
 There are   252 symmetry adapted basis functions of A   symmetry.
   252 basis functions,   416 primitive gaussians,   262 cartesian basis functions
    36 alpha electrons       36 beta electrons
       nuclear repulsion energy       522.5622150463 Hartrees.
 NAtoms=   22 NActive=   22 NUniq=   22 SFac= 1.00D+00 NAtFMM=   60 NAOKFM=F Big=F
 Integral buffers will be    131072 words long.
 Raffenetti 2 integral format.
 Two-electron integral symmetry is turned on.
 Nuclear repulsion after empirical dispersion term =      522.5166456458 Hartrees.
 Force inversion solution in PCM.
 ------------------------------------------------------------------------------
 Polarizable Continuum Model (PCM)
 =================================
 Model                : PCM.
 Atomic radii         : UFF (Universal Force Field).
 Polarization charges : Total charges.
 Charge compensation  : None.
 Solution method      : Matrix inversion.
 Cavity type          : Scaled VdW (van der Waals Surface) (Alpha=1.100).
 Cavity algorithm     : GePol (No added spheres)
                        Default sphere list used, NSphG=   22.
                        Lebedev-Laikov grids with approx.  5.0 points / Ang**2.
                        Smoothing algorithm: York/Karplus (Gamma=1.0000).
                        Polarization charges: spherical gaussians, with
                                              point-specific exponents (IZeta= 3).
                        Self-potential: point-specific (ISelfS= 7).
                        Self-field    : sphere-specific E.n sum rule (ISelfD= 2).
 1st derivatives      : Analytical E(r).r(x)/FMM algorithm (CHGder, D1EAlg=3).
                        Cavity 1st derivative terms included.
 2nd derivatives      : Analytical E(r).r(xy)/FMM algorithm (CHGder, D2EAlg=3).
                        Cavity 2nd derivative terms included.
 Solvent              : Cis-Decalin, Eps=   2.213900 Eps(inf)=   2.193361
 ------------------------------------------------------------------------------
 One-electron integrals computed using PRISM.
 NBasis=   252 RedAO= T EigKep=  5.23D-04  NBF=   252
 NBsUse=   252 1.00D-06 EigRej= -1.00D+00 NBFU=   252
 ExpMin= 1.03D-01 ExpMax= 4.56D+03 ExpMxC= 6.82D+02 IAcc=3 IRadAn=         5 AccDes= 0.00D+00
 Harris functional with IExCor=  402 and IRadAn=       5 diagonalized for initial guess.
 HarFok:  IExCor=  402 AccDes= 0.00D+00 IRadAn=         5 IDoV= 1 UseB2=F ITyADJ=14
 ICtDFT=  3500011 ScaDFX=  1.000000  1.000000  1.000000  1.000000
 FoFCou: FMM=F IPFlag=           0 FMFlag=      100000 FMFlg1=           0
         NFxFlg=           0 DoJE=T BraDBF=F KetDBF=T FulRan=T
         wScrn=  0.000000 ICntrl=       500 IOpCl=  0 I1Cent=   200000004 NGrid=           0
         NMat0=    1 NMatS0=      1 NMatT0=    0 NMatD0=    1 NMtDS0=    0 NMtDT0=    0
 Petite list used in FoFCou.
 Requested convergence on RMS density matrix=1.00D-08 within 128 cycles.
 Requested convergence on MAX density matrix=1.00D-06.
 Requested convergence on             energy=1.00D-06.
 No special actions if energy rises.
 Inv3:  Mode=1 IEnd=     7087107.
 Iteration    1 A*A^-1 deviation from unit magnitude is 3.77D-15 for   1526.
 Iteration    1 A*A^-1 deviation from orthogonality  is 2.63D-15 for   1520    714.
 Iteration    1 A^-1*A deviation from unit magnitude is 3.55D-15 for    885.
 Iteration    1 A^-1*A deviation from orthogonality  is 3.36D-15 for   1526    969.
 Error on total polarization charges =  0.00620
 SCF Done:  E(RB3LYP) =  -388.319576300     A.U. after   12 cycles
            NFock= 12  Conv=0.40D-08     -V/T= 2.0048
 DoSCS=F DFT=T ScalE2(SS,OS)=  1.000000  1.000000
 Range of M.O.s used for correlation:     1   252
 NBasis=   252 NAE=    36 NBE=    36 NFC=     0 NFV=     0
 NROrb=    252 NOA=    36 NOB=    36 NVA=   216 NVB=   216
 Symmetrizing basis deriv contribution to polar:
 IMax=3 JMax=2 DiffMx= 0.00D+00
 G2DrvN: will do    23 centers at a time, making    1 passes.
 Calling FoFCou, ICntrl=  3107 FMM=F I1Cent=   0 AccDes= 0.00D+00.
 NEqPCM:  Using equilibrium solvation (IEInf=0, Eps=   2.2139, EpsInf=   2.1934)
 G2PCM: DoFxE=T DoFxN=T DoGrad=T DoDP/DQ/DG/TGxP=FFFF NFrqRd=   0 IEInf=0 SqF1=F DoCFld=F IF1Alg=4.
 End of G2Drv F.D. properties file   721 does not exist.
 End of G2Drv F.D. properties file   722 does not exist.
 End of G2Drv F.D. properties file   788 does not exist.
          IDoAtm=1111111111111111111111
 NEqPCM:  Using equilibrium solvation (IEInf=0, Eps=   2.2139, EpsInf=   2.1934)
          Differentiating once with respect to electric field.
                with respect to dipole field.
          Differentiating once with respect to nuclear coordinates.
 Keep R1 ints in memory in canonical form, NReq=612588626.
          There are    69 degrees of freedom in the 1st order CPHF.  IDoFFX=6 NUNeed=     3.
     66 vectors produced by pass  0 Test12= 1.13D-14 1.45D-09 XBig12= 3.39D+02 1.66D+01.
 AX will form    66 AO Fock derivatives at one time.
     66 vectors produced by pass  1 Test12= 1.13D-14 1.45D-09 XBig12= 6.00D+01 1.33D+00.
     66 vectors produced by pass  2 Test12= 1.13D-14 1.45D-09 XBig12= 5.43D-01 1.15D-01.
     66 vectors produced by pass  3 Test12= 1.13D-14 1.45D-09 XBig12= 1.13D-03 5.60D-03.
     66 vectors produced by pass  4 Test12= 1.13D-14 1.45D-09 XBig12= 1.81D-06 2.33D-04.
     48 vectors produced by pass  5 Test12= 1.13D-14 1.45D-09 XBig12= 1.92D-09 5.26D-06.
      7 vectors produced by pass  6 Test12= 1.13D-14 1.45D-09 XBig12= 2.01D-12 2.32D-07.
      3 vectors produced by pass  7 Test12= 1.13D-14 1.45D-09 XBig12= 2.06D-15 5.45D-09.
 InvSVY:  IOpt=1 It=  1 EMax= 1.95D-14
 Solved reduced A of dimension   388 with    69 vectors.
 Isotropic polarizability for W=    0.000000      134.66 Bohr**3.
 End of Minotr F.D. properties file   721 does not exist.
 End of Minotr F.D. properties file   722 does not exist.
 End of Minotr F.D. properties file   788 does not exist.

 **********************************************************************

            Population analysis using the SCF density.

 **********************************************************************

 Orbital symmetries:
       Occupied  (A) (A) (A) (A) (A) (A) (A) (A) (A) (A) (A) (A)
                 (A) (A) (A) (A) (A) (A) (A) (A) (A) (A) (A) (A)
                 (A) (A) (A) (A) (A) (A) (A) (A) (A) (A) (A) (A)
       Virtual   (A) (A) (A) (A) (A) (A) (A) (A) (A) (A) (A) (A)
                 (A) (A) (A) (A) (A) (A) (A) (A) (A) (A) (A) (A)
                 (A) (A) (A) (A) (A) (A) (A) (A) (A) (A) (A) (A)
                 (A) (A) (A) (A) (A) (A) (A) (A) (A) (A) (A) (A)
                 (A) (A) (A) (A) (A) (A) (A) (A) (A) (A) (A) (A)
                 (A) (A) (A) (A) (A) (A) (A) (A) (A) (A) (A) (A)
                 (A) (A) (A) (A) (A) (A) (A) (A) (A) (A) (A) (A)
                 (A) (A) (A) (A) (A) (A) (A) (A) (A) (A) (A) (A)
                 (A) (A) (A) (A) (A) (A) (A) (A) (A) (A) (A) (A)
                 (A) (A) (A) (A) (A) (A) (A) (A) (A) (A) (A) (A)
                 (A) (A) (A) (A) (A) (A) (A) (A) (A) (A) (A) (A)
                 (A) (A) (A) (A) (A) (A) (A) (A) (A) (A) (A) (A)
                 (A) (A) (A) (A) (A) (A) (A) (A) (A) (A) (A) (A)
                 (A) (A) (A) (A) (A) (A) (A) (A) (A) (A) (A) (A)
                 (A) (A) (A) (A) (A) (A) (A) (A) (A) (A) (A) (A)
                 (A) (A) (A) (A) (A) (A) (A) (A) (A) (A) (A) (A)
                 (A) (A) (A) (A) (A) (A) (A) (A) (A) (A) (A) (A)
                 (A) (A) (A) (A) (A) (A) (A) (A) (A) (A) (A) (A)
 The electronic state is 1-A.
 Alpha  occ. eigenvalues --  -10.18040 -10.18037 -10.16861 -10.16861 -10.16548
 Alpha  occ. eigenvalues --  -10.16548 -10.16115 -10.16113 -10.16067 -10.16067
 Alpha  occ. eigenvalues --   -0.86960  -0.83815  -0.72097  -0.70661  -0.69068
 Alpha  occ. eigenvalues --   -0.68107  -0.56218  -0.55043  -0.53170  -0.51569
 Alpha  occ. eigenvalues --   -0.51505  -0.49923  -0.45443  -0.42246  -0.39160
 Alpha  occ. eigenvalues --   -0.37968  -0.37545  -0.36985  -0.36422  -0.35824
 Alpha  occ. eigenvalues --   -0.35692  -0.34013  -0.31907  -0.27263  -0.25827
 Alpha  occ. eigenvalues --   -0.17895
 Alpha virt. eigenvalues --   -0.04353   0.02900   0.03721   0.04667   0.07414
 Alpha virt. eigenvalues --    0.07732   0.07790   0.09636   0.09763   0.10848
 Alpha virt. eigenvalues --    0.10926   0.12823   0.13078   0.14858   0.15071
 Alpha virt. eigenvalues --    0.18188   0.18660   0.19942   0.21818   0.22517
 Alpha virt. eigenvalues --    0.26247   0.27683   0.30516   0.31133   0.31804
 Alpha virt. eigenvalues --    0.32822   0.35339   0.37628   0.38063   0.38253
 Alpha virt. eigenvalues --    0.39178   0.40597   0.41887   0.42024   0.43218
 Alpha virt. eigenvalues --    0.44329   0.45394   0.45478   0.46571   0.49803
 Alpha virt. eigenvalues --    0.50305   0.52040   0.54951   0.55148   0.55920
 Alpha virt. eigenvalues --    0.56326   0.58721   0.59090   0.59603   0.59714
 Alpha virt. eigenvalues --    0.60645   0.61030   0.61946   0.63649   0.64115
 Alpha virt. eigenvalues --    0.64465   0.65743   0.66432   0.67471   0.69345
 Alpha virt. eigenvalues --    0.70148   0.70748   0.71894   0.74545   0.75543
 Alpha virt. eigenvalues --    0.78079   0.81170   0.82080   0.85864   0.86929
 Alpha virt. eigenvalues --    0.88265   0.90917   0.92609   0.97349   0.99468
 Alpha virt. eigenvalues --    1.04972   1.05342   1.06825   1.10266   1.14532
 Alpha virt. eigenvalues --    1.15524   1.19987   1.20318   1.22682   1.22857
 Alpha virt. eigenvalues --    1.26516   1.32126   1.33951   1.38590   1.42616
 Alpha virt. eigenvalues --    1.46069   1.48399   1.49637   1.49991   1.50917
 Alpha virt. eigenvalues --    1.51933   1.52886   1.54210   1.55750   1.57430
 Alpha virt. eigenvalues --    1.58361   1.59448   1.59831   1.60526   1.61473
 Alpha virt. eigenvalues --    1.64090   1.65051   1.67231   1.68025   1.71873
 Alpha virt. eigenvalues --    1.72055   1.73045   1.74462   1.76277   1.77302
 Alpha virt. eigenvalues --    1.77314   1.81669   1.82631   1.83140   1.83471
 Alpha virt. eigenvalues --    1.83549   1.86137   1.86180   1.87607   1.89162
 Alpha virt. eigenvalues --    1.92201   1.92815   1.93851   1.97330   1.98179
 Alpha virt. eigenvalues --    2.00619   2.01291   2.01835   2.06857   2.07280
 Alpha virt. eigenvalues --    2.13166   2.13532   2.16773   2.17130   2.17520
 Alpha virt. eigenvalues --    2.21770   2.22099   2.26909   2.29438   2.32993
 Alpha virt. eigenvalues --    2.35440   2.36796   2.37899   2.40630   2.42002
 Alpha virt. eigenvalues --    2.45138   2.45494   2.48218   2.49424   2.50211
 Alpha virt. eigenvalues --    2.52616   2.60372   2.60769   2.60795   2.62763
 Alpha virt. eigenvalues --    2.65141   2.67476   2.68161   2.69140   2.70723
 Alpha virt. eigenvalues --    2.71152   2.74392   2.75325   2.76432   2.78390
 Alpha virt. eigenvalues --    2.80649   2.84591   2.86274   2.89581   2.91411
 Alpha virt. eigenvalues --    2.92330   2.92931   2.96409   3.00725   3.04315
 Alpha virt. eigenvalues --    3.08929   3.09026   3.11086   3.17705   3.19473
 Alpha virt. eigenvalues --    3.30588   3.32295   3.41177   3.43038   3.44073
 Alpha virt. eigenvalues --    3.45650   3.54398   3.54808   3.61758   3.77270
 Alpha virt. eigenvalues --    3.81344   4.03817   4.03874   4.06994   4.09163
 Alpha virt. eigenvalues --    4.09379   4.14677   4.15498   4.20059   4.48891
 Alpha virt. eigenvalues --    4.51049  23.63739  23.75857  23.88957  23.88993
 Alpha virt. eigenvalues --   23.91831  24.00940  24.05133  24.08701  24.18814
 Alpha virt. eigenvalues --   24.19471
          Condensed to atoms (all electrons):
               1          2          3          4          5          6
     1  C    4.863860   0.473851  -0.076777  -0.009152   0.008016   0.544420
     2  C    0.473851   5.075899   0.461674  -0.064918  -0.062654  -0.094197
     3  C   -0.076777   0.461674   5.196731   0.171196  -0.064918  -0.086393
     4  C   -0.009152  -0.064918   0.171196   5.196732   0.461675  -0.018500
     5  C    0.008016  -0.062654  -0.064918   0.461675   5.075906   0.051877
     6  C    0.544420  -0.094197  -0.086393  -0.018500   0.051877   5.107005
     7  C   -0.017418   0.008016  -0.009151  -0.076776   0.473845  -0.011896
     8  C   -0.011895   0.051872  -0.018498  -0.086393  -0.094197  -0.003831
     9  C    0.000367  -0.013408  -0.046261   0.375055  -0.090903   0.000906
    10  C   -0.088138  -0.090903   0.375054  -0.046261  -0.013408   0.366559
    11  H    0.421688  -0.044446   0.006673  -0.000214   0.000424  -0.045450
    12  H   -0.036066   0.419061  -0.039822  -0.001214   0.000190   0.006539
    13  H    0.007607  -0.035967   0.406863  -0.024630   0.004838   0.006572
    14  H   -0.000237   0.004838  -0.024630   0.406863  -0.035967  -0.000251
    15  H   -0.000537   0.000190  -0.001213  -0.039821   0.419060   0.002405
    16  H   -0.038211   0.008484   0.005047   0.000333  -0.001688   0.416804
    17  H    0.001861   0.000424  -0.000214   0.006673  -0.044446   0.000384
    18  H    0.000158  -0.001688   0.000333   0.005047   0.008484   0.000049
    19  H   -0.000216   0.003843   0.007426  -0.031801   0.000332  -0.000266
    20  H    0.000859  -0.003747  -0.003668  -0.043020   0.008659   0.000106
    21  H   -0.001917   0.000332  -0.031801   0.007427   0.003844  -0.039498
    22  H    0.005862   0.008659  -0.043019  -0.003668  -0.003747  -0.037511
               7          8          9         10         11         12
     1  C   -0.017418  -0.011895   0.000367  -0.088138   0.421688  -0.036066
     2  C    0.008016   0.051872  -0.013408  -0.090903  -0.044446   0.419061
     3  C   -0.009151  -0.018498  -0.046261   0.375054   0.006673  -0.039822
     4  C   -0.076776  -0.086393   0.375055  -0.046261  -0.000214  -0.001214
     5  C    0.473845  -0.094197  -0.090903  -0.013408   0.000424   0.000190
     6  C   -0.011896  -0.003831   0.000906   0.366559  -0.045450   0.006539
     7  C    4.863857   0.544426  -0.088137   0.000367   0.001861  -0.000537
     8  C    0.544426   5.106998   0.366559   0.000906   0.000384   0.002405
     9  C   -0.088137   0.366559   4.896335   0.005256  -0.000074  -0.000075
    10  C    0.000367   0.000906   0.005256   4.896339   0.008453   0.006415
    11  H    0.001861   0.000384  -0.000074   0.008453   0.573224  -0.003173
    12  H   -0.000537   0.002405  -0.000075   0.006415  -0.003173   0.548573
    13  H   -0.000237  -0.000251  -0.003146  -0.028654  -0.000272  -0.003694
    14  H    0.007606   0.006571  -0.028654  -0.003146   0.000037  -0.000101
    15  H   -0.036065   0.006539   0.006415  -0.000075  -0.000048   0.000003
    16  H    0.000158   0.000049   0.000003  -0.037163  -0.004757  -0.000315
    17  H    0.421688  -0.045450   0.008453  -0.000074   0.000091  -0.000048
    18  H   -0.038211   0.416804  -0.037163   0.000003   0.000020   0.000308
    19  H   -0.001917  -0.039498   0.388273  -0.000285  -0.000002   0.000123
    20  H    0.005862  -0.037510   0.409788   0.000529  -0.000011  -0.000251
    21  H   -0.000216  -0.000266  -0.000285   0.388272  -0.000389  -0.000256
    22  H    0.000859   0.000106   0.000529   0.409789  -0.000260  -0.000303
              13         14         15         16         17         18
     1  C    0.007607  -0.000237  -0.000537  -0.038211   0.001861   0.000158
     2  C   -0.035967   0.004838   0.000190   0.008484   0.000424  -0.001688
     3  C    0.406863  -0.024630  -0.001213   0.005047  -0.000214   0.000333
     4  C   -0.024630   0.406863  -0.039821   0.000333   0.006673   0.005047
     5  C    0.004838  -0.035967   0.419060  -0.001688  -0.044446   0.008484
     6  C    0.006572  -0.000251   0.002405   0.416804   0.000384   0.000049
     7  C   -0.000237   0.007606  -0.036065   0.000158   0.421688  -0.038211
     8  C   -0.000251   0.006571   0.006539   0.000049  -0.045450   0.416804
     9  C   -0.003146  -0.028654   0.006415   0.000003   0.008453  -0.037163
    10  C   -0.028654  -0.003146  -0.000075  -0.037163  -0.000074   0.000003
    11  H   -0.000272   0.000037  -0.000048  -0.004757   0.000091   0.000020
    12  H   -0.003694  -0.000101   0.000003  -0.000315  -0.000048   0.000308
    13  H    0.551031  -0.003560  -0.000101  -0.000332   0.000037   0.000024
    14  H   -0.003560   0.551031  -0.003694   0.000024  -0.000272  -0.000332
    15  H   -0.000101  -0.003694   0.548571   0.000308  -0.003173  -0.000316
    16  H   -0.000332   0.000024   0.000308   0.558501   0.000020   0.000000
    17  H    0.000037  -0.000272  -0.003173   0.000020   0.573224  -0.004757
    18  H    0.000024  -0.000332  -0.000316   0.000000  -0.004757   0.558501
    19  H   -0.000373  -0.002397  -0.000256   0.000001  -0.000389   0.000380
    20  H    0.002505  -0.000780  -0.000303  -0.000005  -0.000260  -0.002074
    21  H   -0.002397  -0.000373   0.000123   0.000380  -0.000002   0.000001
    22  H   -0.000780   0.002505  -0.000251  -0.002074  -0.000011  -0.000005
              19         20         21         22
     1  C   -0.000216   0.000859  -0.001917   0.005862
     2  C    0.003843  -0.003747   0.000332   0.008659
     3  C    0.007426  -0.003668  -0.031801  -0.043019
     4  C   -0.031801  -0.043020   0.007427  -0.003668
     5  C    0.000332   0.008659   0.003844  -0.003747
     6  C   -0.000266   0.000106  -0.039498  -0.037511
     7  C   -0.001917   0.005862  -0.000216   0.000859
     8  C   -0.039498  -0.037510  -0.000266   0.000106
     9  C    0.388273   0.409788  -0.000285   0.000529
    10  C   -0.000285   0.000529   0.388272   0.409789
    11  H   -0.000002  -0.000011  -0.000389  -0.000260
    12  H    0.000123  -0.000251  -0.000256  -0.000303
    13  H   -0.000373   0.002505  -0.002397  -0.000780
    14  H   -0.002397  -0.000780  -0.000373   0.002505
    15  H   -0.000256  -0.000303   0.000123  -0.000251
    16  H    0.000001  -0.000005   0.000380  -0.002074
    17  H   -0.000389  -0.000260  -0.000002  -0.000011
    18  H    0.000380  -0.002074   0.000001  -0.000005
    19  H    0.580567  -0.032499  -0.000008  -0.000045
    20  H   -0.032499   0.579235  -0.000045  -0.000021
    21  H   -0.000008  -0.000045   0.580567  -0.032499
    22  H   -0.000045  -0.000021  -0.032499   0.579235
 Mulliken charges:
               1
     1  C   -0.047983
     2  C   -0.105217
     3  C   -0.184630
     4  C   -0.184630
     5  C   -0.105222
     6  C   -0.165832
     7  C   -0.047983
     8  C   -0.165830
     9  C   -0.149833
    10  C   -0.149833
    11  H    0.086242
    12  H    0.102239
    13  H    0.124920
    14  H    0.124921
    15  H    0.102240
    16  H    0.094436
    17  H    0.086242
    18  H    0.094435
    19  H    0.129007
    20  H    0.116651
    21  H    0.129007
    22  H    0.116651
 Sum of Mulliken charges =  -0.00000
 Mulliken charges with hydrogens summed into heavy atoms:
               1
     1  C    0.038258
     2  C   -0.002979
     3  C   -0.059710
     4  C   -0.059709
     5  C   -0.002981
     6  C   -0.071396
     7  C    0.038259
     8  C   -0.071394
     9  C    0.095826
    10  C    0.095826
 APT charges:
               1
     1  C   -0.015680
     2  C   -0.139383
     3  C    0.091027
     4  C    0.091017
     5  C   -0.139373
     6  C   -0.025425
     7  C   -0.015680
     8  C   -0.025432
     9  C    0.020136
    10  C    0.020136
    11  H    0.040579
    12  H    0.049909
    13  H   -0.003977
    14  H   -0.003977
    15  H    0.049907
    16  H    0.015612
    17  H    0.040578
    18  H    0.015615
    19  H   -0.035377
    20  H    0.002583
    21  H   -0.035378
    22  H    0.002583
 Sum of APT charges =   0.00000
 APT charges with hydrogens summed into heavy atoms:
               1
     1  C    0.024898
     2  C   -0.089474
     3  C    0.087050
     4  C    0.087040
     5  C   -0.089466
     6  C   -0.009813
     7  C    0.024898
     8  C   -0.009817
     9  C   -0.012658
    10  C   -0.012659
 Electronic spatial extent (au):  <R**2>=           1168.8104
 Charge=             -0.0000 electrons
 Dipole moment (field-independent basis, Debye):
    X=             -0.0000    Y=             -0.5312    Z=             -0.0000  Tot=              0.5312
 Quadrupole moment (field-independent basis, Debye-Ang):
   XX=            -62.6982   YY=            -57.1590   ZZ=            -59.8636
   XY=              0.0001   XZ=             -3.7933   YZ=              0.0000
 Traceless Quadrupole moment (field-independent basis, Debye-Ang):
   XX=             -2.7913   YY=              2.7479   ZZ=              0.0434
   XY=              0.0001   XZ=             -3.7933   YZ=              0.0000
 Octapole moment (field-independent basis, Debye-Ang**2):
  XXX=             -0.0002  YYY=              2.6075  ZZZ=             -0.0000  XYY=             -0.0000
  XXY=             -1.8698  XXZ=             -0.0000  XZZ=             -0.0000  YZZ=              0.9392
  YYZ=             -0.0001  XYZ=             -1.1722
 Hexadecapole moment (field-independent basis, Debye-Ang**3):
 XXXX=           -891.8568 YYYY=           -389.9597 ZZZZ=           -346.3483 XXXY=              0.0001
 XXXZ=            -25.2162 YYYX=             -0.0000 YYYZ=              0.0001 ZZZX=            -17.6803
 ZZZY=              0.0000 XXYY=           -208.7184 XXZZ=           -211.5726 YYZZ=           -122.7835
 XXYZ=              0.0003 YYXZ=             -0.8400 ZZXY=              0.0004
 N-N= 5.225166456458D+02 E-N=-1.945589554861D+03  KE= 3.864676356054D+02
  Exact polarizability: 167.855   0.000 117.759  -1.581  -0.000 118.375
 Approx polarizability: 271.135   0.001 169.773   8.213  -0.001 200.820
 D2PCM: PCM CHGder 2nd derivatives, FixD1E=F FixD2E=F DoIter=F DoCFld=F I1PDM=0
 Calling FoFJK, ICntrl=    100127 FMM=F ISym2X=0 I1Cent= 0 IOpClX= 0 NMat=1 NMatS=1 NMatT=0.
 Full mass-weighted force constant matrix:
 Low frequencies --- -364.2463   -0.0004   -0.0003    0.0004    7.8594   23.2985
 Low frequencies ---   26.3111   67.4431  150.1347
 ******    1 imaginary frequencies (negative Signs) ****** 
 Diagonal vibrational polarizability:
        9.6326510       2.2048219      13.1010929
 Harmonic frequencies (cm**-1), IR intensities (KM/Mole), Raman scattering
 activities (A**4/AMU), depolarization ratios for plane and unpolarized
 incident light, reduced masses (AMU), force constants (mDyne/A),
 and normal coordinates:
                      1                      2                      3
                      A                      A                      A
 Frequencies --   -364.2463                67.3763               150.1315
 Red. masses --      9.1304                 4.7263                 3.3262
 Frc consts  --      0.7137                 0.0126                 0.0442
 IR Inten    --      1.3665                 1.6293                 0.0247
  Atom  AN      X      Y      Z        X      Y      Z        X      Y      Z
     1   6     0.02   0.03  -0.06     0.03   0.06   0.00     0.09   0.03  -0.12
     2   6     0.13  -0.08   0.05    -0.20   0.09  -0.11    -0.00   0.14  -0.04
     3   6     0.44  -0.00   0.35    -0.10   0.07  -0.08    -0.06   0.07   0.05
     4   6    -0.44  -0.00  -0.35    -0.10  -0.07  -0.08     0.06   0.07  -0.05
     5   6    -0.13  -0.08  -0.05    -0.20  -0.09  -0.11     0.00   0.14   0.04
     6   6     0.12   0.02   0.05     0.24   0.03   0.14     0.11  -0.12  -0.05
     7   6    -0.02   0.03   0.06     0.03  -0.06   0.00    -0.09   0.03   0.12
     8   6    -0.12   0.02  -0.05     0.24  -0.03   0.14    -0.11  -0.12   0.05
     9   6    -0.06   0.02  -0.04     0.02  -0.04   0.03    -0.01  -0.11  -0.09
    10   6     0.06   0.02   0.04     0.02   0.04   0.03     0.01  -0.11   0.09
    11   1    -0.13   0.05  -0.12     0.06   0.06   0.02     0.15   0.07  -0.23
    12   1    -0.03   0.02  -0.03    -0.17   0.07  -0.10    -0.02   0.25  -0.06
    13   1     0.00  -0.08   0.06    -0.11   0.09  -0.05    -0.14   0.11   0.14
    14   1    -0.00  -0.08  -0.06    -0.11  -0.09  -0.05     0.14   0.11  -0.14
    15   1     0.03   0.02   0.03    -0.17  -0.07  -0.10     0.02   0.25   0.06
    16   1     0.09  -0.00   0.01     0.39   0.00   0.23     0.19  -0.23  -0.08
    17   1     0.13   0.05   0.12     0.06  -0.06   0.02    -0.15   0.07   0.23
    18   1    -0.09  -0.00  -0.01     0.39  -0.00   0.23    -0.19  -0.23   0.08
    19   1    -0.16   0.03   0.18    -0.06   0.13   0.07     0.03  -0.13  -0.17
    20   1     0.12   0.02  -0.07     0.04  -0.14  -0.02    -0.03  -0.19  -0.12
    21   1     0.16   0.03  -0.18    -0.06  -0.13   0.07    -0.03  -0.13   0.17
    22   1    -0.12   0.02   0.07     0.04   0.14  -0.02     0.03  -0.19   0.12
                      4                      5                      6
                      A                      A                      A
 Frequencies --    184.0520               272.8937               342.5400
 Red. masses --      3.8915                 3.1748                 3.5641
 Frc consts  --      0.0777                 0.1393                 0.2464
 IR Inten    --      0.3319                 0.0074                 0.0348
  Atom  AN      X      Y      Z        X      Y      Z        X      Y      Z
     1   6     0.20  -0.03   0.12     0.16   0.06   0.06     0.11  -0.01   0.11
     2   6     0.09  -0.03   0.01     0.06   0.09   0.04     0.06   0.03   0.13
     3   6    -0.01   0.02  -0.09    -0.06   0.09   0.02    -0.05   0.04   0.13
     4   6     0.01   0.02   0.09    -0.06  -0.09   0.02     0.05   0.04  -0.13
     5   6    -0.09  -0.03  -0.01     0.06  -0.09   0.04    -0.06   0.03  -0.13
     6   6     0.21   0.02   0.10    -0.02   0.06  -0.02    -0.14  -0.03  -0.00
     7   6    -0.20  -0.03  -0.12     0.16  -0.06   0.06    -0.11  -0.01  -0.11
     8   6    -0.21   0.02  -0.10    -0.02  -0.06  -0.02     0.14  -0.03   0.00
     9   6    -0.02   0.02   0.07    -0.15  -0.06  -0.10     0.17  -0.03  -0.03
    10   6     0.02   0.02  -0.07    -0.15   0.06  -0.10    -0.17  -0.03   0.03
    11   1     0.33  -0.06   0.23     0.34   0.04   0.14     0.28  -0.02   0.16
    12   1     0.07  -0.06  -0.00     0.16   0.08   0.09     0.19   0.03   0.20
    13   1     0.02   0.01  -0.11    -0.00   0.10   0.06    -0.14   0.04   0.10
    14   1    -0.02   0.01   0.11    -0.00  -0.10   0.06     0.14   0.04  -0.10
    15   1    -0.07  -0.06   0.00     0.16  -0.08   0.09    -0.19   0.03  -0.20
    16   1     0.29   0.03   0.17    -0.01   0.04  -0.04    -0.21  -0.06  -0.08
    17   1    -0.33  -0.06  -0.23     0.34  -0.04   0.14    -0.28  -0.02  -0.16
    18   1    -0.29   0.03  -0.17    -0.01  -0.04  -0.04     0.21  -0.06   0.08
    19   1     0.03  -0.14   0.10    -0.13   0.04  -0.25     0.11  -0.01   0.09
    20   1     0.03   0.15   0.12    -0.31  -0.13  -0.10     0.29  -0.06  -0.06
    21   1    -0.03  -0.14  -0.10    -0.13  -0.04  -0.25    -0.11  -0.01  -0.09
    22   1    -0.03   0.15  -0.12    -0.31   0.13  -0.10    -0.29  -0.06   0.06
                      7                      8                      9
                      A                      A                      A
 Frequencies --    420.1654               442.8267               562.9458
 Red. masses --      1.9767                 1.9069                 2.9427
 Frc consts  --      0.2056                 0.2203                 0.5495
 IR Inten    --      0.1589                 0.8218                 1.7957
  Atom  AN      X      Y      Z        X      Y      Z        X      Y      Z
     1   6    -0.06   0.00  -0.02     0.09  -0.01   0.05    -0.13   0.04  -0.06
     2   6    -0.10   0.02  -0.03    -0.00   0.01  -0.03     0.17  -0.04   0.11
     3   6    -0.00   0.01   0.03    -0.08   0.02  -0.08    -0.08   0.03  -0.03
     4   6     0.00   0.01  -0.03    -0.08  -0.02  -0.08     0.08   0.03   0.03
     5   6     0.10   0.02   0.03    -0.00  -0.01  -0.03    -0.17  -0.04  -0.11
     6   6     0.05  -0.02   0.05    -0.07   0.02  -0.06     0.07  -0.01   0.07
     7   6     0.06   0.00   0.02     0.09   0.01   0.05     0.13   0.04   0.06
     8   6    -0.05  -0.02  -0.05    -0.07  -0.02  -0.06    -0.07  -0.01  -0.07
     9   6     0.12  -0.02   0.09     0.04  -0.02   0.07     0.03  -0.02  -0.02
    10   6    -0.12  -0.02  -0.08     0.04   0.02   0.07    -0.03  -0.02   0.02
    11   1    -0.08   0.01  -0.05     0.22  -0.04   0.15    -0.35   0.08  -0.20
    12   1    -0.21   0.07  -0.09    -0.05   0.01  -0.05     0.36  -0.07   0.21
    13   1    -0.05   0.01   0.00    -0.12   0.03  -0.08    -0.07   0.01  -0.05
    14   1     0.05   0.01  -0.00    -0.12  -0.03  -0.08     0.07   0.01   0.05
    15   1     0.21   0.07   0.09    -0.05  -0.01  -0.05    -0.36  -0.07  -0.21
    16   1     0.12  -0.03   0.10    -0.06   0.01  -0.06    -0.03  -0.02  -0.00
    17   1     0.08   0.01   0.05     0.22   0.04   0.15     0.35   0.08   0.20
    18   1    -0.12  -0.03  -0.10    -0.06  -0.01  -0.06     0.03  -0.02   0.00
    19   1     0.09  -0.23   0.35    -0.01  -0.23   0.39     0.10  -0.19  -0.01
    20   1     0.38   0.15   0.12     0.33   0.16   0.12     0.08   0.11   0.03
    21   1    -0.09  -0.23  -0.35    -0.01   0.23   0.39    -0.10  -0.19   0.01
    22   1    -0.38   0.15  -0.12     0.33  -0.16   0.12    -0.08   0.11  -0.03
                     10                     11                     12
                      A                      A                      A
 Frequencies --    602.0957               706.3459               709.2481
 Red. masses --      2.2923                 1.2521                 1.2072
 Frc consts  --      0.4896                 0.3681                 0.3578
 IR Inten    --      0.8889                 1.8113                65.5350
  Atom  AN      X      Y      Z        X      Y      Z        X      Y      Z
     1   6    -0.07   0.05  -0.06    -0.04  -0.01  -0.04    -0.04  -0.02  -0.03
     2   6     0.13  -0.03   0.05    -0.00  -0.02  -0.01    -0.01  -0.01   0.00
     3   6    -0.12   0.02  -0.07    -0.00  -0.01   0.02     0.02  -0.01   0.03
     4   6    -0.12  -0.02  -0.07     0.00  -0.01  -0.02     0.02   0.01   0.03
     5   6     0.13   0.03   0.05     0.00  -0.02   0.01    -0.01   0.01   0.00
     6   6     0.06   0.02   0.03    -0.01   0.02  -0.04    -0.02   0.02  -0.04
     7   6    -0.07  -0.05  -0.06     0.04  -0.01   0.04    -0.04   0.02  -0.03
     8   6     0.06  -0.02   0.03     0.01   0.02   0.04    -0.02  -0.02  -0.04
     9   6    -0.03  -0.01   0.03     0.06   0.03  -0.01    -0.03  -0.02  -0.00
    10   6    -0.03   0.01   0.03    -0.06   0.03   0.01    -0.03   0.02  -0.00
    11   1    -0.18   0.06  -0.11     0.17  -0.06   0.13     0.20  -0.07   0.13
    12   1     0.49  -0.12   0.23     0.20  -0.04   0.09     0.14  -0.01   0.07
    13   1    -0.09   0.01  -0.09     0.01  -0.03  -0.01     0.04  -0.03  -0.00
    14   1    -0.09  -0.01  -0.09    -0.01  -0.03   0.01     0.04   0.03  -0.00
    15   1     0.49   0.12   0.23    -0.20  -0.04  -0.09     0.14   0.02   0.07
    16   1     0.02  -0.00  -0.02     0.51  -0.05   0.29     0.53  -0.04   0.31
    17   1    -0.18  -0.06  -0.11    -0.17  -0.06  -0.13     0.20   0.07   0.13
    18   1     0.02   0.00  -0.02    -0.51  -0.05  -0.29     0.53   0.04   0.31
    19   1    -0.13   0.06   0.19     0.04   0.14  -0.09     0.00  -0.14   0.04
    20   1     0.11  -0.04  -0.00    -0.03  -0.08  -0.05     0.02   0.09   0.05
    21   1    -0.13  -0.06   0.19    -0.04   0.14   0.09     0.00   0.14   0.04
    22   1     0.11   0.04  -0.00     0.03  -0.08   0.05     0.02  -0.09   0.05
                     13                     14                     15
                      A                      A                      A
 Frequencies --    739.2408               752.3063               797.6327
 Red. masses --      1.3695                 1.4430                 3.2668
 Frc consts  --      0.4410                 0.4812                 1.2246
 IR Inten    --     73.3228                 0.0048                 0.0267
  Atom  AN      X      Y      Z        X      Y      Z        X      Y      Z
     1   6     0.01  -0.01   0.00     0.01  -0.03  -0.02    -0.05  -0.06   0.02
     2   6    -0.11   0.02  -0.03     0.07  -0.05   0.03     0.00   0.04   0.16
     3   6     0.03   0.01   0.01    -0.03   0.01   0.00     0.04   0.14  -0.04
     4   6     0.03  -0.01   0.01     0.03   0.01  -0.00    -0.04   0.14   0.04
     5   6    -0.11  -0.02  -0.03    -0.07  -0.05  -0.03    -0.00   0.04  -0.16
     6   6    -0.01  -0.02   0.01     0.01   0.03  -0.04    -0.09  -0.07  -0.02
     7   6     0.01   0.01   0.00    -0.01  -0.03   0.02     0.05  -0.06  -0.02
     8   6    -0.01   0.02   0.01    -0.01   0.03   0.04     0.09  -0.07   0.02
     9   6     0.03   0.02  -0.01     0.06   0.04  -0.02    -0.14  -0.06   0.10
    10   6     0.03  -0.02  -0.01    -0.06   0.04   0.02     0.14  -0.06  -0.10
    11   1     0.15  -0.02   0.04    -0.10  -0.03  -0.02     0.10  -0.02  -0.10
    12   1     0.51  -0.23   0.29    -0.52   0.18  -0.27    -0.23   0.07   0.05
    13   1     0.08   0.04   0.09    -0.15  -0.05  -0.15    -0.12   0.10  -0.15
    14   1     0.08  -0.04   0.09     0.15  -0.05   0.15     0.12   0.10   0.15
    15   1     0.51   0.23   0.29     0.52   0.18   0.27     0.23   0.07  -0.05
    16   1    -0.19   0.02  -0.09     0.06   0.01  -0.01     0.27   0.06   0.34
    17   1     0.15   0.02   0.04     0.10  -0.03   0.02    -0.10  -0.02   0.10
    18   1    -0.19  -0.02  -0.09    -0.06   0.01   0.01    -0.27   0.06  -0.34
    19   1     0.04  -0.01  -0.02     0.08   0.09  -0.11    -0.18  -0.03   0.16
    20   1     0.03   0.04  -0.01    -0.02  -0.05  -0.05    -0.03  -0.12   0.06
    21   1     0.04   0.01  -0.02    -0.08   0.09   0.11     0.18  -0.03  -0.16
    22   1     0.03  -0.04  -0.01     0.02  -0.06   0.05     0.03  -0.12  -0.06
                     16                     17                     18
                      A                      A                      A
 Frequencies --    817.4437               832.0671               832.5134
 Red. masses --      4.1586                 3.6359                 5.1447
 Frc consts  --      1.6372                 1.4831                 2.1008
 IR Inten    --      7.0992                 2.5888                35.9074
  Atom  AN      X      Y      Z        X      Y      Z        X      Y      Z
     1   6    -0.07   0.13   0.07    -0.01   0.19   0.06    -0.03  -0.19  -0.04
     2   6     0.07   0.08   0.02     0.14   0.03  -0.09    -0.07   0.04   0.26
     3   6     0.03   0.10  -0.12     0.03  -0.09  -0.06    -0.06   0.19  -0.02
     4   6     0.03  -0.10  -0.12    -0.03  -0.09   0.06    -0.06  -0.19  -0.02
     5   6     0.07  -0.08   0.02    -0.14   0.03   0.09    -0.07  -0.04   0.26
     6   6    -0.14  -0.11   0.10    -0.13  -0.02   0.08     0.05  -0.05  -0.07
     7   6    -0.07  -0.13   0.07     0.01   0.19  -0.06    -0.03   0.19  -0.04
     8   6    -0.14   0.11   0.10     0.13  -0.02  -0.08     0.05   0.05  -0.07
     9   6     0.08   0.15  -0.08    -0.00  -0.11  -0.01     0.12  -0.05  -0.11
    10   6     0.08  -0.15  -0.08     0.00  -0.11   0.01     0.12   0.05  -0.11
    11   1     0.19   0.15   0.02     0.04   0.18   0.10     0.04  -0.12  -0.26
    12   1    -0.07  -0.12  -0.03    -0.25   0.04  -0.27    -0.17   0.18   0.20
    13   1    -0.10   0.18   0.03     0.06   0.00   0.16    -0.01   0.10  -0.19
    14   1    -0.10  -0.18   0.03    -0.06   0.00  -0.16    -0.01  -0.10  -0.19
    15   1    -0.07   0.12  -0.03     0.25   0.04   0.27    -0.17  -0.18   0.20
    16   1     0.20  -0.13   0.33     0.24  -0.19   0.22    -0.03   0.22   0.09
    17   1     0.19  -0.15   0.02    -0.04   0.18  -0.10     0.04   0.12  -0.26
    18   1     0.20   0.13   0.33    -0.24  -0.19  -0.22    -0.03  -0.22   0.09
    19   1     0.09   0.14  -0.09    -0.08  -0.04   0.11     0.04   0.02   0.01
    20   1     0.08   0.04  -0.13     0.00   0.03   0.06     0.10   0.07  -0.06
    21   1     0.09  -0.14  -0.09     0.08  -0.04  -0.11     0.04  -0.02   0.01
    22   1     0.08  -0.04  -0.13     0.00   0.03  -0.06     0.10  -0.07  -0.06
                     19                     20                     21
                      A                      A                      A
 Frequencies --    891.1667               922.2096               933.3529
 Red. masses --      2.0724                 1.9373                 1.6986
 Frc consts  --      0.9697                 0.9708                 0.8718
 IR Inten    --     12.9424                18.2613                 1.1874
  Atom  AN      X      Y      Z        X      Y      Z        X      Y      Z
     1   6    -0.01   0.03   0.02    -0.00   0.00  -0.01     0.01   0.01   0.01
     2   6    -0.02  -0.03  -0.04     0.01  -0.00  -0.01    -0.00  -0.05  -0.07
     3   6     0.10   0.12  -0.06    -0.09  -0.04   0.04    -0.02   0.04   0.02
     4   6    -0.10   0.12   0.06    -0.09   0.04   0.04     0.02   0.04  -0.02
     5   6     0.02  -0.03   0.04     0.01   0.00  -0.01     0.00  -0.05   0.07
     6   6    -0.00  -0.05   0.05    -0.02   0.10  -0.05    -0.01   0.10  -0.04
     7   6     0.01   0.03  -0.02    -0.00  -0.00  -0.01    -0.01   0.01  -0.01
     8   6     0.00  -0.05  -0.05    -0.02  -0.10  -0.05     0.01   0.10   0.04
     9   6     0.10  -0.03   0.02     0.12   0.06   0.02    -0.04  -0.08  -0.03
    10   6    -0.10  -0.03  -0.02     0.12  -0.06   0.02     0.04  -0.08   0.03
    11   1     0.02   0.05  -0.03     0.00  -0.05   0.16    -0.14  -0.04   0.16
    12   1    -0.00  -0.35  -0.02     0.10   0.11   0.03     0.09  -0.16  -0.02
    13   1    -0.10   0.07  -0.23    -0.41   0.01   0.11    -0.51   0.07  -0.03
    14   1     0.10   0.07   0.23    -0.41  -0.01   0.11     0.51   0.07   0.03
    15   1     0.00  -0.35   0.02     0.10  -0.11   0.03    -0.09  -0.16   0.02
    16   1    -0.12  -0.09  -0.06     0.04   0.21   0.08     0.02   0.18   0.04
    17   1    -0.02   0.05   0.03     0.00   0.05   0.16     0.14  -0.04  -0.16
    18   1     0.12  -0.09   0.06     0.04  -0.21   0.08    -0.02   0.18  -0.04
    19   1     0.21   0.05  -0.33     0.20   0.16  -0.28    -0.06  -0.17   0.11
    20   1    -0.15  -0.23  -0.04    -0.17  -0.07  -0.01     0.17  -0.10  -0.07
    21   1    -0.21   0.05   0.33     0.20  -0.16  -0.28     0.06  -0.17  -0.11
    22   1     0.15  -0.23   0.04    -0.17   0.07  -0.01    -0.17  -0.10   0.07
                     22                     23                     24
                      A                      A                      A
 Frequencies --    949.8295               953.8075               964.6041
 Red. masses --      1.3835                 1.3950                 1.6128
 Frc consts  --      0.7354                 0.7477                 0.8841
 IR Inten    --      1.7583                 7.8390                 9.0652
  Atom  AN      X      Y      Z        X      Y      Z        X      Y      Z
     1   6     0.10  -0.01   0.04    -0.09   0.01  -0.04     0.02  -0.01   0.05
     2   6    -0.03  -0.00  -0.01     0.03  -0.00   0.00     0.00   0.01  -0.02
     3   6     0.01   0.00  -0.02     0.00  -0.01   0.02     0.00   0.01   0.03
     4   6    -0.01   0.00   0.02     0.00   0.01   0.02     0.00  -0.01   0.03
     5   6     0.03  -0.00   0.01     0.03   0.00   0.00     0.00  -0.01  -0.02
     6   6    -0.04  -0.02  -0.02     0.06   0.01   0.02     0.03   0.07  -0.01
     7   6    -0.10  -0.01  -0.04    -0.09  -0.01  -0.04     0.02   0.01   0.05
     8   6     0.04  -0.02   0.02     0.06  -0.01   0.02     0.03  -0.07  -0.01
     9   6     0.01   0.03  -0.03    -0.01   0.02  -0.03    -0.04   0.09  -0.09
    10   6    -0.01   0.03   0.03    -0.01  -0.02  -0.03    -0.04  -0.09  -0.09
    11   1    -0.48   0.09  -0.35     0.45  -0.10   0.35    -0.33   0.01  -0.02
    12   1     0.09  -0.07   0.05    -0.12   0.08  -0.07     0.01  -0.02  -0.02
    13   1     0.02  -0.03  -0.10     0.06   0.02   0.09     0.07   0.08   0.19
    14   1    -0.02  -0.03   0.10     0.06  -0.02   0.09     0.07  -0.08   0.19
    15   1    -0.09  -0.07  -0.05    -0.12  -0.08  -0.07     0.01   0.02  -0.02
    16   1     0.23  -0.12   0.10    -0.24   0.10  -0.12     0.01   0.27   0.14
    17   1     0.48   0.09   0.35     0.45   0.10   0.35    -0.33  -0.01  -0.02
    18   1    -0.23  -0.12  -0.10    -0.24  -0.10  -0.12     0.01  -0.27   0.14
    19   1    -0.02   0.02   0.05    -0.06   0.02   0.09    -0.12  -0.02   0.22
    20   1     0.06   0.09  -0.02     0.08   0.08  -0.02     0.16   0.36   0.01
    21   1     0.02   0.02  -0.05    -0.06  -0.02   0.09    -0.12   0.02   0.22
    22   1    -0.06   0.09   0.02     0.08  -0.08  -0.02     0.16  -0.36   0.01
                     25                     26                     27
                      A                      A                      A
 Frequencies --    977.5364               982.6002              1006.3238
 Red. masses --      1.7301                 1.8967                 1.3793
 Frc consts  --      0.9741                 1.0790                 0.8230
 IR Inten    --      0.0070                36.7752                 0.0005
  Atom  AN      X      Y      Z        X      Y      Z        X      Y      Z
     1   6    -0.02   0.00  -0.04     0.02   0.02  -0.01     0.01   0.02  -0.02
     2   6    -0.00  -0.04  -0.01    -0.00   0.03   0.00    -0.01  -0.02  -0.02
     3   6     0.02   0.04  -0.05    -0.06  -0.11   0.07    -0.04  -0.02   0.05
     4   6    -0.02   0.04   0.05    -0.06   0.11   0.07     0.04  -0.02  -0.05
     5   6     0.00  -0.04   0.01    -0.00  -0.03   0.00     0.01  -0.02   0.02
     6   6    -0.03  -0.05  -0.01    -0.01  -0.05   0.06    -0.01  -0.05   0.05
     7   6     0.02   0.00   0.04     0.02  -0.02  -0.01    -0.01   0.02   0.02
     8   6     0.03  -0.05   0.01    -0.01   0.05   0.06     0.01  -0.05  -0.05
     9   6    -0.03   0.07  -0.12     0.02  -0.04  -0.11    -0.01   0.04   0.06
    10   6     0.03   0.07   0.12     0.02   0.04  -0.11     0.01   0.04  -0.06
    11   1     0.29  -0.04   0.10     0.04   0.06  -0.16     0.08   0.04  -0.11
    12   1    -0.04  -0.12  -0.02     0.06   0.22   0.02     0.05  -0.05   0.01
    13   1    -0.06  -0.03  -0.22    -0.13  -0.09   0.11    -0.49  -0.01  -0.01
    14   1     0.06  -0.03   0.22    -0.13   0.09   0.11     0.49  -0.01   0.01
    15   1     0.04  -0.12   0.02     0.06  -0.22   0.02    -0.05  -0.05  -0.01
    16   1     0.01  -0.26  -0.14    -0.01  -0.07   0.05    -0.02  -0.13  -0.02
    17   1    -0.29  -0.04  -0.10     0.04  -0.06  -0.16    -0.08   0.04   0.11
    18   1    -0.01  -0.26   0.14    -0.01   0.07   0.05     0.02  -0.13   0.02
    19   1    -0.09  -0.12   0.19     0.08  -0.32   0.02    -0.08   0.24   0.03
    20   1     0.26   0.30  -0.05     0.38  -0.16  -0.22    -0.25   0.20   0.17
    21   1     0.09  -0.12  -0.19     0.08   0.32   0.02     0.08   0.24  -0.03
    22   1    -0.26   0.30   0.05     0.38   0.16  -0.22     0.25   0.20  -0.17
                     28                     29                     30
                      A                      A                      A
 Frequencies --   1040.3174              1081.8130              1084.5879
 Red. masses --      1.5501                 1.6649                 1.1892
 Frc consts  --      0.9884                 1.1480                 0.8242
 IR Inten    --     23.0970                 0.4366                 4.1396
  Atom  AN      X      Y      Z        X      Y      Z        X      Y      Z
     1   6    -0.02  -0.08   0.02    -0.03  -0.09   0.02    -0.01  -0.03   0.02
     2   6     0.04  -0.00  -0.07     0.06   0.00  -0.08    -0.00   0.06  -0.01
     3   6    -0.04   0.05   0.01     0.00   0.08   0.01     0.02  -0.03  -0.03
     4   6    -0.04  -0.05   0.01    -0.00   0.08  -0.01     0.02   0.03  -0.03
     5   6     0.04   0.00  -0.07    -0.06   0.00   0.08    -0.00  -0.06  -0.01
     6   6    -0.02  -0.04  -0.00    -0.02  -0.05   0.01    -0.02  -0.01   0.01
     7   6    -0.02   0.08   0.02     0.03  -0.09  -0.02    -0.01   0.03   0.02
     8   6    -0.02   0.04  -0.00     0.02  -0.05  -0.01    -0.02   0.01   0.01
     9   6     0.03  -0.05   0.01    -0.00   0.04   0.00     0.00   0.01   0.01
    10   6     0.03   0.05   0.01     0.00   0.04  -0.00     0.00  -0.01   0.01
    11   1    -0.16  -0.14   0.16    -0.25  -0.18   0.28    -0.12  -0.07   0.16
    12   1     0.04   0.03  -0.08     0.04   0.08  -0.10     0.19   0.49   0.05
    13   1     0.22   0.23   0.45     0.06   0.27   0.40     0.15  -0.15  -0.26
    14   1     0.22  -0.23   0.45    -0.06   0.27  -0.40     0.15   0.15  -0.26
    15   1     0.04  -0.03  -0.08    -0.04   0.08   0.10     0.19  -0.49   0.05
    16   1     0.04  -0.07   0.03     0.03  -0.12  -0.00    -0.02   0.03   0.05
    17   1    -0.16   0.14   0.16     0.25  -0.18  -0.28    -0.12   0.07   0.16
    18   1     0.04   0.07   0.03    -0.03  -0.12   0.00    -0.02  -0.03   0.05
    19   1    -0.03   0.09   0.01     0.02   0.01  -0.03    -0.09   0.18   0.06
    20   1     0.04  -0.25  -0.09    -0.05   0.14   0.06    -0.00  -0.04  -0.02
    21   1    -0.03  -0.09   0.01    -0.02   0.01   0.03    -0.09  -0.18   0.06
    22   1     0.04   0.25  -0.09     0.05   0.14  -0.06    -0.00   0.04  -0.02
                     31                     32                     33
                      A                      A                      A
 Frequencies --   1090.1873              1105.5022              1115.1868
 Red. masses --      1.1231                 1.1464                 1.3799
 Frc consts  --      0.7865                 0.8255                 1.0111
 IR Inten    --      1.9606                 1.4856                 2.5456
  Atom  AN      X      Y      Z        X      Y      Z        X      Y      Z
     1   6    -0.02  -0.01   0.02     0.02  -0.00  -0.03     0.01  -0.06  -0.03
     2   6    -0.00   0.05  -0.01     0.00  -0.01  -0.01     0.03   0.01  -0.06
     3   6     0.03  -0.02  -0.01    -0.02  -0.04  -0.00     0.02   0.00  -0.00
     4   6    -0.03  -0.02   0.01    -0.02   0.04  -0.00    -0.02   0.00   0.00
     5   6     0.00   0.05   0.01     0.00   0.01  -0.01    -0.03   0.01   0.06
     6   6    -0.00  -0.01   0.01    -0.04   0.01   0.02    -0.05  -0.02   0.06
     7   6     0.02  -0.01  -0.02     0.02   0.00  -0.03    -0.01  -0.06   0.03
     8   6     0.00  -0.01  -0.01    -0.04  -0.01   0.02     0.05  -0.02  -0.06
     9   6     0.00  -0.01   0.01     0.01  -0.00   0.03     0.01   0.02  -0.03
    10   6    -0.00  -0.01  -0.01     0.01   0.00   0.03    -0.01   0.02   0.03
    11   1    -0.16  -0.08   0.26     0.25   0.09  -0.32     0.17   0.00  -0.24
    12   1     0.18   0.42   0.04    -0.04  -0.04  -0.03     0.09   0.18  -0.05
    13   1    -0.12  -0.16  -0.36     0.25  -0.04   0.06    -0.04  -0.02  -0.08
    14   1     0.12  -0.16   0.36     0.25   0.04   0.06     0.04  -0.02   0.08
    15   1    -0.18   0.42  -0.04    -0.04   0.04  -0.03    -0.09   0.18   0.05
    16   1    -0.01  -0.11  -0.07    -0.07   0.33   0.25    -0.15   0.40   0.32
    17   1     0.16  -0.08  -0.26     0.25  -0.09  -0.32    -0.17   0.00   0.24
    18   1     0.01  -0.11   0.07    -0.07  -0.33   0.25     0.15   0.40  -0.32
    19   1     0.01  -0.01  -0.03    -0.10   0.22   0.08     0.11  -0.15  -0.10
    20   1    -0.03  -0.02   0.01    -0.02  -0.09  -0.01     0.03   0.11   0.00
    21   1    -0.01  -0.01   0.03    -0.10  -0.22   0.08    -0.11  -0.15   0.10
    22   1     0.03  -0.02  -0.01    -0.02   0.09  -0.01    -0.03   0.11  -0.00
                     34                     35                     36
                      A                      A                      A
 Frequencies --   1127.1251              1147.4888              1186.6689
 Red. masses --      1.5457                 1.1595                 1.2731
 Frc consts  --      1.1570                 0.8995                 1.0563
 IR Inten    --      7.5948                 2.6959                 2.3875
  Atom  AN      X      Y      Z        X      Y      Z        X      Y      Z
     1   6    -0.01  -0.07  -0.02    -0.01  -0.02  -0.00     0.00   0.03   0.01
     2   6     0.04   0.01  -0.07     0.02   0.00  -0.03    -0.00  -0.01   0.03
     3   6     0.03   0.04  -0.02    -0.01   0.01  -0.03    -0.08  -0.02  -0.05
     4   6     0.03  -0.04  -0.02     0.01   0.01   0.03    -0.08   0.02  -0.05
     5   6     0.04  -0.01  -0.07    -0.02   0.00   0.03    -0.00   0.01   0.03
     6   6     0.00  -0.04   0.08     0.03  -0.02   0.05     0.02   0.00   0.01
     7   6    -0.01   0.07  -0.02     0.01  -0.02   0.00     0.00  -0.03   0.01
     8   6     0.00   0.04   0.08    -0.03  -0.02  -0.05     0.02  -0.00   0.01
     9   6    -0.04  -0.02   0.03     0.02   0.00  -0.02     0.02   0.03   0.01
    10   6    -0.04   0.02   0.03    -0.02   0.00   0.02     0.02  -0.03   0.01
    11   1     0.03  -0.05  -0.12    -0.01  -0.01  -0.06    -0.02   0.03  -0.00
    12   1     0.10   0.14  -0.06     0.05   0.05  -0.02    -0.01   0.12   0.02
    13   1    -0.24   0.07  -0.04     0.00   0.02  -0.00     0.47  -0.02   0.09
    14   1    -0.24  -0.07  -0.04    -0.00   0.02   0.00     0.47   0.02   0.09
    15   1     0.10  -0.14  -0.06    -0.05   0.05   0.02    -0.01  -0.12   0.02
    16   1    -0.17   0.25   0.19    -0.09   0.06   0.03     0.02  -0.06  -0.05
    17   1     0.03   0.05  -0.12     0.01  -0.01   0.06    -0.02  -0.03  -0.00
    18   1    -0.17  -0.25   0.19     0.09   0.06  -0.03     0.02   0.06  -0.05
    19   1     0.16  -0.33  -0.13    -0.27   0.44   0.24     0.23  -0.25  -0.23
    20   1    -0.16   0.17   0.15     0.19  -0.27  -0.18    -0.12   0.20   0.11
    21   1     0.16   0.33  -0.13     0.27   0.44  -0.24     0.23   0.25  -0.23
    22   1    -0.16  -0.17   0.15    -0.19  -0.27   0.18    -0.12  -0.20   0.11
                     37                     38                     39
                      A                      A                      A
 Frequencies --   1277.7866              1279.7796              1301.0836
 Red. masses --      1.8926                 1.9399                 1.4436
 Frc consts  --      1.8206                 1.8720                 1.4398
 IR Inten    --      6.8314                 2.5840                 0.7877
  Atom  AN      X      Y      Z        X      Y      Z        X      Y      Z
     1   6    -0.01   0.03   0.03     0.00  -0.04  -0.02    -0.02  -0.03   0.03
     2   6     0.01  -0.03  -0.04    -0.01   0.04   0.04    -0.02  -0.03   0.03
     3   6    -0.04  -0.01   0.04     0.05   0.01  -0.05     0.05  -0.03  -0.08
     4   6    -0.04   0.01   0.04    -0.05   0.01   0.05     0.05   0.03  -0.08
     5   6     0.01   0.03  -0.04     0.01   0.04  -0.04    -0.02   0.03   0.03
     6   6    -0.01  -0.05   0.02     0.02   0.05  -0.02    -0.00   0.07   0.02
     7   6    -0.01  -0.03   0.03    -0.01  -0.04   0.02    -0.02   0.03   0.03
     8   6    -0.01   0.05   0.02    -0.02   0.05   0.02    -0.00  -0.07   0.02
     9   6     0.08  -0.13  -0.08     0.08  -0.12  -0.08    -0.01   0.00   0.00
    10   6     0.08   0.13  -0.08    -0.08  -0.12   0.08    -0.01  -0.00   0.00
    11   1     0.02   0.05  -0.04    -0.01  -0.05   0.02     0.16   0.07  -0.28
    12   1     0.04   0.02  -0.03    -0.04  -0.05   0.04     0.07   0.32   0.04
    13   1    -0.05  -0.04  -0.02    -0.01   0.05   0.02    -0.17   0.18   0.33
    14   1    -0.05   0.04  -0.02     0.01   0.05  -0.02    -0.17  -0.18   0.33
    15   1     0.04  -0.02  -0.03     0.04  -0.05  -0.04     0.07  -0.32   0.04
    16   1     0.01  -0.13  -0.02    -0.02   0.13   0.01     0.07  -0.21  -0.16
    17   1     0.02  -0.05  -0.04     0.01  -0.05  -0.02     0.16  -0.07  -0.28
    18   1     0.01   0.13  -0.02     0.02   0.13  -0.01     0.07   0.21  -0.16
    19   1    -0.15   0.24   0.13    -0.15   0.24   0.13    -0.06   0.07   0.05
    20   1    -0.28   0.43   0.26    -0.28   0.43   0.25    -0.03   0.06   0.03
    21   1    -0.15  -0.24   0.13     0.15   0.24  -0.13    -0.06  -0.07   0.05
    22   1    -0.28  -0.43   0.26     0.28   0.43  -0.25    -0.03  -0.06   0.03
                     40                     41                     42
                      A                      A                      A
 Frequencies --   1303.0752              1365.6339              1395.3066
 Red. masses --      1.4455                 2.5461                 3.1119
 Frc consts  --      1.4462                 2.7976                 3.5696
 IR Inten    --      0.3722                 6.4113                 4.2332
  Atom  AN      X      Y      Z        X      Y      Z        X      Y      Z
     1   6    -0.02  -0.03   0.03    -0.03  -0.03   0.03    -0.02   0.01   0.03
     2   6    -0.02  -0.03   0.02     0.03   0.16   0.04     0.00   0.15   0.08
     3   6     0.06  -0.02  -0.08     0.07  -0.12  -0.06     0.03  -0.16  -0.12
     4   6    -0.06  -0.02   0.08    -0.07  -0.12   0.06     0.03   0.16  -0.12
     5   6     0.02  -0.03  -0.02    -0.03   0.16  -0.04     0.00  -0.15   0.08
     6   6    -0.00   0.07   0.02     0.04  -0.07  -0.06     0.05  -0.09  -0.08
     7   6     0.02  -0.03  -0.03     0.03  -0.03  -0.03    -0.02  -0.01   0.03
     8   6     0.00   0.07  -0.02    -0.04  -0.07   0.06     0.05   0.09  -0.08
     9   6     0.01   0.00  -0.00     0.02   0.09  -0.02    -0.02  -0.08   0.03
    10   6    -0.01   0.00   0.00    -0.02   0.09   0.02    -0.02   0.08   0.03
    11   1     0.17   0.06  -0.28    -0.09  -0.06   0.12    -0.14  -0.03   0.19
    12   1     0.07   0.31   0.04    -0.10  -0.34   0.02    -0.08  -0.22   0.08
    13   1    -0.23   0.17   0.29    -0.41   0.01   0.15    -0.18   0.06   0.35
    14   1     0.23   0.17  -0.29     0.41   0.01  -0.15    -0.18  -0.06   0.35
    15   1    -0.07   0.31  -0.04     0.10  -0.34  -0.02    -0.08   0.22   0.08
    16   1     0.07  -0.22  -0.16    -0.04   0.18   0.08    -0.05   0.28   0.13
    17   1    -0.17   0.06   0.28     0.09  -0.06  -0.12    -0.14   0.03   0.19
    18   1    -0.07  -0.22   0.16     0.04   0.18  -0.08    -0.05  -0.28   0.13
    19   1     0.06  -0.06  -0.05     0.08  -0.10   0.00    -0.03   0.04  -0.07
    20   1     0.05  -0.07  -0.04     0.05  -0.10  -0.11    -0.07   0.08   0.12
    21   1    -0.06  -0.06   0.05    -0.08  -0.10  -0.00    -0.03  -0.04  -0.07
    22   1    -0.05  -0.07   0.04    -0.05  -0.10   0.11    -0.07  -0.08   0.12
                     43                     44                     45
                      A                      A                      A
 Frequencies --   1435.6871              1437.7206              1468.5701
 Red. masses --      2.5805                 2.2059                 1.1311
 Frc consts  --      3.1339                 2.6865                 1.4373
 IR Inten    --      9.3576                 4.4785                 9.6214
  Atom  AN      X      Y      Z        X      Y      Z        X      Y      Z
     1   6     0.09   0.11  -0.11     0.07   0.11  -0.08     0.01   0.01  -0.01
     2   6    -0.06  -0.15   0.06    -0.07  -0.10   0.07    -0.01  -0.03  -0.00
     3   6     0.04   0.02  -0.03     0.03  -0.01  -0.06     0.00   0.02   0.01
     4   6     0.04  -0.02  -0.03    -0.03  -0.01   0.06     0.00  -0.02   0.01
     5   6    -0.06   0.15   0.06     0.07  -0.10  -0.07    -0.01   0.03  -0.00
     6   6    -0.03  -0.06   0.01     0.00  -0.08  -0.02    -0.01  -0.01  -0.00
     7   6     0.09  -0.11  -0.11    -0.07   0.11   0.08     0.01  -0.01  -0.01
     8   6    -0.03   0.06   0.01    -0.00  -0.08   0.02    -0.01   0.01  -0.00
     9   6     0.00  -0.01  -0.01    -0.00   0.01   0.00    -0.04  -0.04   0.03
    10   6     0.00   0.01  -0.01     0.00   0.01  -0.00    -0.04   0.04   0.03
    11   1    -0.18  -0.01   0.33    -0.17   0.01   0.30    -0.00   0.01   0.02
    12   1     0.01   0.30   0.08     0.02   0.25   0.10     0.01   0.06  -0.00
    13   1    -0.08   0.15   0.20    -0.10   0.14   0.23    -0.02   0.02   0.00
    14   1    -0.08  -0.15   0.20     0.10   0.14  -0.23    -0.02  -0.02   0.00
    15   1     0.01  -0.30   0.08    -0.02   0.25  -0.10     0.01  -0.06  -0.00
    16   1    -0.07   0.18   0.19    -0.08   0.24   0.18    -0.02   0.03   0.02
    17   1    -0.18   0.01   0.33     0.17   0.01  -0.30    -0.00  -0.01   0.02
    18   1    -0.07  -0.18   0.19     0.08   0.24  -0.18    -0.02  -0.03   0.02
    19   1    -0.06  -0.06   0.16     0.04   0.11  -0.15     0.04   0.27  -0.40
    20   1    -0.11  -0.06  -0.01     0.17   0.09  -0.00     0.46   0.22   0.06
    21   1    -0.06   0.06   0.16    -0.04   0.11   0.15     0.04  -0.27  -0.39
    22   1    -0.11   0.06  -0.01    -0.17   0.09   0.00     0.45  -0.22   0.06
                     46                     47                     48
                      A                      A                      A
 Frequencies --   1468.8532              1522.0670              1541.9988
 Red. masses --      1.1527                 3.7529                 4.1392
 Frc consts  --      1.4653                 5.1225                 5.7988
 IR Inten    --      3.7943                 7.2958                 0.7286
  Atom  AN      X      Y      Z        X      Y      Z        X      Y      Z
     1   6     0.01   0.02  -0.00    -0.09   0.09   0.19     0.12  -0.07  -0.23
     2   6    -0.01  -0.03   0.00    -0.01  -0.10  -0.05    -0.02   0.07   0.06
     3   6    -0.00   0.01  -0.01     0.00   0.04   0.04     0.01  -0.03  -0.03
     4   6     0.00   0.01   0.01     0.00  -0.04   0.04    -0.01  -0.03   0.03
     5   6     0.01  -0.03  -0.00    -0.01   0.10  -0.05     0.02   0.07  -0.06
     6   6    -0.00  -0.02  -0.01     0.10  -0.11  -0.18    -0.10   0.12   0.20
     7   6    -0.01   0.02   0.00    -0.09  -0.09   0.19    -0.12  -0.07   0.23
     8   6     0.00  -0.02   0.01     0.10   0.11  -0.18     0.10   0.12  -0.20
     9   6     0.04   0.04  -0.03    -0.02   0.01   0.02    -0.01   0.01   0.02
    10   6    -0.04   0.04   0.03    -0.02  -0.01   0.02     0.01   0.01  -0.02
    11   1    -0.01   0.02   0.03     0.14   0.24  -0.19    -0.16  -0.24   0.23
    12   1     0.03   0.09   0.01     0.13   0.28  -0.01    -0.10  -0.23   0.05
    13   1     0.00   0.03   0.03    -0.03   0.02  -0.05     0.00  -0.01   0.04
    14   1    -0.00   0.03  -0.03    -0.03  -0.02  -0.05    -0.00  -0.01  -0.04
    15   1    -0.03   0.09  -0.01     0.13  -0.28  -0.01     0.10  -0.23  -0.05
    16   1    -0.02   0.05   0.04    -0.01   0.31   0.03    -0.01  -0.29  -0.02
    17   1     0.01   0.02  -0.03     0.14  -0.24  -0.19     0.16  -0.24  -0.23
    18   1     0.02   0.05  -0.04    -0.01  -0.31   0.03     0.01  -0.29   0.02
    19   1    -0.04  -0.26   0.40     0.04  -0.12   0.02     0.04  -0.13   0.04
    20   1    -0.44  -0.21  -0.06    -0.01  -0.21  -0.08    -0.03  -0.21  -0.08
    21   1     0.04  -0.26  -0.40     0.04   0.12   0.02    -0.04  -0.13  -0.04
    22   1     0.45  -0.22   0.06    -0.01   0.21  -0.08     0.03  -0.21   0.08
                     49                     50                     51
                      A                      A                      A
 Frequencies --   2982.3491              2982.5120              3083.3239
 Red. masses --      1.0718                 1.0721                 1.0887
 Frc consts  --      5.6165                 5.6191                 6.0982
 IR Inten    --    113.7579                17.9389                16.4451
  Atom  AN      X      Y      Z        X      Y      Z        X      Y      Z
     1   6     0.00   0.00  -0.00    -0.00  -0.00   0.00     0.00  -0.00   0.00
     2   6    -0.00  -0.00   0.00     0.00   0.00  -0.00    -0.00  -0.00   0.00
     3   6    -0.00  -0.00  -0.00     0.00   0.00  -0.00     0.00  -0.00   0.00
     4   6    -0.00   0.00  -0.00    -0.00   0.00   0.00    -0.00  -0.00  -0.00
     5   6    -0.00   0.00   0.00    -0.00   0.00   0.00     0.00  -0.00  -0.00
     6   6    -0.00   0.00  -0.00     0.00  -0.00   0.00     0.00   0.00  -0.00
     7   6     0.00  -0.00  -0.00     0.00  -0.00  -0.00    -0.00  -0.00  -0.00
     8   6    -0.00  -0.00  -0.00    -0.00  -0.00  -0.00    -0.00   0.00   0.00
     9   6    -0.05  -0.02  -0.01    -0.05  -0.02  -0.01    -0.01   0.02  -0.05
    10   6    -0.05   0.02  -0.01     0.05  -0.02   0.01     0.01   0.02   0.05
    11   1    -0.00  -0.00  -0.00     0.00   0.00   0.00    -0.00   0.00  -0.00
    12   1    -0.00   0.00   0.00     0.00  -0.00   0.00     0.00  -0.00  -0.01
    13   1     0.00   0.02  -0.01    -0.00  -0.02   0.01     0.00   0.04  -0.02
    14   1     0.00  -0.02  -0.01     0.00  -0.02  -0.01    -0.00   0.04   0.02
    15   1    -0.00  -0.00   0.00    -0.00  -0.00  -0.00    -0.00  -0.00   0.01
    16   1    -0.00  -0.00   0.01     0.00   0.00  -0.01    -0.01  -0.01   0.02
    17   1    -0.00   0.00  -0.00    -0.00   0.00  -0.00     0.00   0.00   0.00
    18   1    -0.00   0.00   0.01    -0.00   0.00   0.01     0.01  -0.01  -0.02
    19   1     0.58   0.23   0.26     0.62   0.25   0.27     0.08   0.04   0.02
    20   1    -0.03   0.04  -0.10    -0.03   0.04  -0.10     0.11  -0.30   0.62
    21   1     0.62  -0.24   0.27    -0.58   0.23  -0.26    -0.08   0.04  -0.02
    22   1    -0.03  -0.04  -0.10     0.03   0.04   0.09    -0.11  -0.30  -0.62
                     52                     53                     54
                      A                      A                      A
 Frequencies --   3084.7424              3139.8294              3147.6116
 Red. masses --      1.0894                 1.0905                 1.0896
 Frc consts  --      6.1077                 6.3343                 6.3600
 IR Inten    --     40.6103                 6.8142                40.9584
  Atom  AN      X      Y      Z        X      Y      Z        X      Y      Z
     1   6    -0.00   0.00  -0.00    -0.00  -0.00  -0.00     0.00   0.00   0.00
     2   6    -0.00  -0.00   0.00    -0.00  -0.00   0.00     0.00   0.00  -0.00
     3   6    -0.00  -0.00  -0.00     0.01   0.06  -0.02    -0.01  -0.06   0.02
     4   6    -0.00   0.00  -0.00     0.01  -0.06  -0.02     0.01  -0.06  -0.02
     5   6    -0.00   0.00   0.00    -0.00   0.00   0.00    -0.00   0.00   0.00
     6   6    -0.00  -0.00   0.00     0.00   0.00  -0.00    -0.00  -0.00   0.00
     7   6    -0.00  -0.00  -0.00    -0.00   0.00  -0.00    -0.00   0.00  -0.00
     8   6    -0.00   0.00   0.00     0.00  -0.00  -0.00     0.00  -0.00  -0.00
     9   6    -0.01   0.02  -0.05    -0.00  -0.00   0.00    -0.00  -0.00   0.00
    10   6    -0.01  -0.02  -0.05    -0.00   0.00   0.00     0.00  -0.00  -0.00
    11   1     0.00   0.00   0.00     0.00   0.01   0.00    -0.00  -0.00  -0.00
    12   1     0.00  -0.00  -0.00     0.03  -0.00  -0.06    -0.03   0.00   0.06
    13   1     0.00  -0.00   0.00    -0.06  -0.64   0.29     0.06   0.63  -0.29
    14   1     0.00   0.00   0.00    -0.06   0.64   0.29    -0.06   0.63   0.29
    15   1     0.00   0.00  -0.00     0.03   0.00  -0.06     0.03   0.00  -0.06
    16   1     0.01   0.01  -0.02    -0.01  -0.01   0.01     0.01   0.01  -0.01
    17   1     0.00  -0.00   0.00     0.00  -0.01   0.00     0.00  -0.00   0.00
    18   1     0.01  -0.01  -0.02    -0.01   0.01   0.01    -0.01   0.01   0.01
    19   1     0.09   0.04   0.03     0.02   0.01   0.01     0.02   0.01   0.01
    20   1     0.10  -0.30   0.62    -0.00   0.00  -0.00    -0.00   0.02  -0.04
    21   1     0.09  -0.04   0.03     0.02  -0.01   0.01    -0.02   0.01  -0.01
    22   1     0.11   0.30   0.62    -0.00  -0.00  -0.00     0.00   0.02   0.04
                     55                     56                     57
                      A                      A                      A
 Frequencies --   3185.5444              3187.2168              3212.9851
 Red. masses --      1.0885                 1.0886                 1.0972
 Frc consts  --      6.5078                 6.5157                 6.6736
 IR Inten    --     13.0272                15.3118                16.4640
  Atom  AN      X      Y      Z        X      Y      Z        X      Y      Z
     1   6     0.00  -0.05  -0.02     0.00  -0.05  -0.02    -0.00   0.02   0.01
     2   6    -0.00   0.00   0.01    -0.00   0.00   0.01     0.01  -0.00  -0.01
     3   6    -0.00  -0.00   0.00    -0.00  -0.00   0.00    -0.00   0.00   0.00
     4   6    -0.00   0.00   0.00     0.00  -0.00  -0.00    -0.00  -0.00   0.00
     5   6    -0.00  -0.00   0.01     0.00   0.00  -0.01     0.01   0.00  -0.01
     6   6     0.01   0.01  -0.01     0.01   0.01  -0.01     0.03   0.03  -0.04
     7   6     0.00   0.05  -0.02    -0.00  -0.05   0.02    -0.00  -0.02   0.01
     8   6     0.01  -0.01  -0.01    -0.01   0.01   0.01     0.03  -0.03  -0.04
     9   6    -0.00   0.00  -0.00     0.00  -0.00   0.00     0.00   0.00  -0.00
    10   6    -0.00  -0.00  -0.00    -0.00  -0.00  -0.00     0.00  -0.00  -0.00
    11   1    -0.01   0.61   0.18    -0.01   0.61   0.18     0.00  -0.22  -0.07
    12   1     0.05  -0.01  -0.10     0.05  -0.01  -0.10    -0.07   0.01   0.15
    13   1     0.00   0.02  -0.01     0.00   0.02  -0.01     0.00  -0.00   0.00
    14   1     0.00  -0.02  -0.01    -0.00   0.02   0.01     0.00   0.00   0.00
    15   1     0.05   0.01  -0.10    -0.05  -0.01   0.10    -0.08  -0.01   0.16
    16   1    -0.13  -0.15   0.18    -0.14  -0.16   0.19    -0.30  -0.33   0.42
    17   1    -0.01  -0.61   0.18     0.01   0.61  -0.18     0.01   0.24  -0.07
    18   1    -0.13   0.15   0.18     0.14  -0.16  -0.19    -0.33   0.36   0.45
    19   1    -0.00  -0.00  -0.00    -0.00  -0.00  -0.00    -0.00  -0.00  -0.00
    20   1     0.00  -0.00   0.01    -0.00   0.01  -0.01     0.00  -0.01   0.02
    21   1    -0.00   0.00  -0.00     0.00  -0.00   0.00    -0.00   0.00  -0.00
    22   1     0.00   0.00   0.01     0.00   0.01   0.01     0.00   0.01   0.02
                     58                     59                     60
                      A                      A                      A
 Frequencies --   3213.1464              3231.8595              3232.6027
 Red. masses --      1.0976                 1.0973                 1.0979
[...]
 0041463,0.00005157,0.00042248,-0.00145747,-0.00361168,0.00352497,0.000
 92697,0.00036265,0.00063875,-0.00162837,0.04894837,-0.00099937,0.00556
 212,-0.00335026,-0.12501185,0.02073084,-0.28951083,-0.00670603,-0.0041
 6278,-0.00591678,0.00029077,-0.00015751,-0.00031169,-0.00083156,0.0007
 2252,-0.00021941,-0.00217771,-0.00021859,-0.00085663,0.00019283,-0.000
 28733,0.00097478,0.00132411,-0.00075136,-0.00135060,-0.00053783,-0.000
 40120,-0.00028590,-0.00044664,0.00107972,-0.00027725,0.00073419,-0.000
 49079,-0.00033061,0.13396612,-0.02295642,0.30111568,0.00443351,0.00028
 317,0.00142794,-0.00048105,-0.00531142,0.00281386,-0.03659340,-0.00957
 854,-0.02301808,-0.00921422,0.01425159,0.01429015,-0.00231662,-0.00463
 073,-0.00058808,-0.00292366,0.00156142,-0.00475189,-0.00090264,0.00120
 593,-0.00170052,-0.00063913,0.00120600,0.00158277,0.00206544,0.0005993
 3,0.00073045,-0.00047722,-0.01959767,-0.00484536,0.00022315,-0.0002190
 5,0.00007026,-0.00159284,0.00018988,0.00116324,0.04505962,0.00031759,-
 0.00397452,0.00195144,-0.00234219,-0.01548280,-0.01398660,-0.01816165,
 -0.27859966,-0.10425562,-0.00081050,-0.00021093,0.00056199,-0.00020219
 ,0.00034255,-0.00017594,0.00067139,-0.00036698,0.00083856,-0.00009874,
 0.00062474,0.00008481,-0.00024293,-0.00023214,0.00049730,0.00009028,-0
 .00008336,-0.00023344,0.00142849,0.00145581,0.00166752,-0.00117339,-0.
 00050263,-0.00030148,-0.00015157,0.00076035,0.00061123,0.02127537,0.29
 491255,-0.00226460,0.00313149,-0.00350061,0.00331560,0.02107549,0.0110
 0376,-0.02220298,-0.11159998,-0.09252615,0.00474146,-0.00948626,-0.008
 29500,0.00158452,0.00190408,0.00034349,-0.00322385,-0.00138033,-0.0022
 5487,0.00003549,-0.00032225,-0.00000455,0.00013804,0.00049495,-0.00049
 394,-0.00101865,-0.00018792,0.00019935,0.00479368,-0.01545728,-0.00516
 665,0.00084282,0.00063334,0.00043560,0.00098530,-0.00140634,-0.0002029
 9,0.01419445,0.11278035,0.09835779,-0.00090276,-0.00120622,-0.00170061
 ,-0.00231652,0.00463069,-0.00058857,-0.00921426,-0.01425015,0.01429177
 ,-0.03659391,0.00958015,-0.02302101,-0.00048095,0.00531174,0.00281328,
 -0.00063926,-0.00120600,0.00158309,0.00443335,-0.00028283,0.00142776,-
 0.00292373,-0.00156178,-0.00475162,-0.00047759,0.01959721,-0.00484755,
 0.00206546,-0.00059926,0.00073053,0.00029649,-0.00012621,-0.00026845,0
 .00017742,-0.00011650,0.00001339,0.00136052,-0.00006873,-0.00047748,0.
 04506098,0.00009872,0.00062475,-0.00008493,0.00020231,0.00034244,0.000
 17593,0.00081088,-0.00021019,-0.00056260,0.01816324,-0.27857522,0.1042
 7426,0.00234290,-0.01548355,0.01398930,0.00024296,-0.00023226,-0.00049
 732,-0.00031775,-0.00397503,-0.00195137,-0.00067177,-0.00036692,-0.000
 83879,-0.00142802,0.00145748,-0.00166824,-0.00009032,-0.00008335,0.000
 23348,-0.00007188,0.00005707,0.00004961,0.00004734,-0.00000548,-0.0000
 5216,0.00006869,0.00084670,0.00007629,-0.02127805,0.29488690,0.0000355
 4,0.00032223,-0.00000450,0.00158448,-0.00190418,0.00034372,0.00474157,
 0.00948565,-0.00829623,-0.02220700,0.11161877,-0.09254819,0.00331571,-
 0.02107278,0.01100429,0.00013806,-0.00049498,-0.00049394,-0.00226461,-
 0.00313145,-0.00349997,-0.00322372,0.00137997,-0.00225482,0.00479344,0
 .01545654,-0.00516813,-0.00101873,0.00018797,0.00019933,-0.00014524,0.
 00000775,0.00010374,-0.00012856,0.00008367,0.00005955,-0.00047751,-0.0
 0007642,-0.00013943,0.01419870,-0.11280008,0.09838115,-0.00099574,-0.0
 0094190,-0.00279482,0.00193325,0.00230002,0.00096603,-0.00136709,-0.00
 100657,0.00175513,0.00280162,0.00071377,0.00087243,-0.08115820,-0.0010
 8217,-0.12530504,-0.00328288,-0.00094039,0.00431983,-0.00469549,-0.003
 65448,-0.01173850,0.00130062,0.00345180,-0.00038063,0.00222338,-0.0000
 7607,-0.00199914,0.00029233,-0.00045925,-0.00004147,0.00000141,-0.0000
 0461,-0.00007477,-0.00030987,0.00012387,0.00004846,0.00017743,-0.00004
 734,-0.00012856,-0.00159284,0.00015164,0.00098529,0.08572535,-0.000058
 19,-0.00014872,-0.00062808,0.00074965,-0.00009388,0.00059703,-0.000412
 44,-0.00040024,-0.00039418,-0.01193394,0.00527905,-0.01926907,0.000977
 51,-0.05652951,-0.02297875,-0.00076730,-0.00029321,0.00100786,0.006292
 01,0.00829836,0.01943671,0.00258172,-0.00363945,0.00285394,0.00145744,
 -0.00361209,-0.00352466,0.00041463,0.00005158,-0.00042252,0.00003124,0
 .00000359,0.00000706,-0.00012387,-0.00000153,0.00001990,0.00011653,-0.
 00000548,-0.00008368,-0.00018980,0.00076046,0.00140627,0.00164206,0.04
 895307,0.00019287,0.00028746,0.00097496,-0.00083163,-0.00072264,-0.000
 21949,0.00029092,0.00015756,-0.00031176,-0.00670488,0.00416166,-0.0059
 1502,-0.12501147,-0.02075592,-0.28950536,0.00132439,0.00075139,-0.0013
 5101,-0.00099950,-0.00556325,-0.00335127,-0.00217787,0.00021873,-0.000
 85708,-0.00044677,-0.00107930,-0.00027676,-0.00053793,0.00040115,-0.00
 028588,0.00000929,-0.00001159,0.00001522,0.00004849,-0.00001990,0.0000
 5823,0.00001337,0.00005217,0.00005956,0.00116327,-0.00061132,-0.000203
 07,0.13396468,0.02298333,0.30110972,-0.00091748,-0.00682621,-0.0039717
 4,0.00300728,0.00033094,-0.00484953,-0.00084868,-0.00025750,-0.0010359
 5,0.00033390,0.00009735,0.00030421,-0.00015790,0.00013233,-0.00045037,
 -0.10428243,-0.07940619,-0.11188653,0.00048000,-0.00045426,0.00038932,
 -0.00008240,-0.00001274,-0.00047001,0.00019092,0.00044279,0.00012148,0
 .00228743,0.00293577,0.00400792,-0.00279883,0.00070236,0.00189391,0.00
 036460,-0.00110282,-0.00034832,0.00072243,-0.00011206,-0.00092660,-0.0
 0003914,-0.00008901,-0.00006105,0.00001535,-0.00014085,0.00018463,0.10
 203680,0.00698729,0.01028465,0.00872767,0.00059216,-0.00079375,0.00297
 783,0.00129813,-0.00564789,0.00000819,0.00042176,-0.00008197,-0.000229
 81,0.00016301,-0.00006131,-0.00012681,-0.07865435,-0.14141623,-0.10746
 792,-0.00010512,0.00019737,-0.00002860,-0.00017782,-0.00006165,0.00022
 174,-0.00001732,0.00012326,-0.00003555,-0.01402037,-0.00459163,-0.0175
 6326,-0.00009444,0.00024705,-0.00112906,0.00014021,0.00085257,0.000275
 67,-0.00149452,0.00007825,-0.00093091,0.00004166,0.00004903,-0.0000586
 6,-0.00010394,-0.00001651,0.00012564,0.08445282,0.14031888,-0.01028086
 ,-0.01767715,-0.00824453,-0.00343988,0.00229902,-0.00203390,0.00059663
 ,0.00208049,0.00030067,0.00003021,-0.00002194,-0.00024391,0.00000387,0
 .00008341,0.00054667,-0.10793371,-0.10340513,-0.18217062,-0.00025169,0
 .00013638,-0.00024425,0.00008884,0.00013887,0.00027607,-0.00007896,-0.
 00025639,-0.00003809,0.00268011,0.00311061,0.00245133,0.00216615,0.000
 14147,-0.00045210,-0.00081432,-0.00069310,-0.00018093,-0.00023761,0.00
 003018,0.00092806,-0.00001497,0.00005256,0.00007576,-0.00009530,0.0000
 1811,0.00003840,0.11766231,0.11483783,0.18852087,0.00019796,-0.0000850
 5,0.00024621,-0.00012093,-0.00007742,0.00013581,0.00001195,-0.00098994
 ,-0.00045099,0.00274874,0.00309431,-0.00449615,0.00182995,0.01336753,0
 .00593136,0.00043064,-0.00002303,-0.00049811,-0.04205674,-0.00291634,-
 0.00789546,0.00321414,-0.01294161,-0.00280911,0.00520771,0.00019419,-0
 .00632449,0.00000154,0.00002684,0.00001336,-0.00013593,-0.00004572,0.0
 0011567,0.00000141,-0.00003124,0.00000930,0.00029646,0.00007186,-0.000
 14524,0.00022313,0.00117348,0.00084271,-0.00149044,-0.00092690,0.00073
 419,-0.00009734,0.00001681,0.00001839,0.03252073,-0.00014091,-0.000200
 23,-0.00016959,-0.00008629,0.00026022,-0.00036029,-0.00039755,-0.00020
 582,0.00038792,0.00138139,-0.00253479,0.00130737,-0.00358317,-0.011262
 27,-0.00981444,-0.00011362,0.00030071,0.00041457,-0.00021475,-0.315218
 17,-0.07828571,0.00176208,-0.00371160,0.00152969,0.00138254,0.00032275
 ,-0.00146045,0.00005197,-0.00006937,-0.00005430,0.00004573,0.00016294,
 -0.00007851,0.00000459,0.00000359,0.00001160,0.00012619,0.00005707,-0.
 00000775,0.00021906,-0.00050263,-0.00063322,-0.00006706,0.00036260,0.0
 0049073,0.00012988,0.00000479,-0.00002331,0.00048258,0.33234297,-0.000
 00673,-0.00007483,0.00009211,0.00013911,-0.00018822,0.00003144,0.00048
 249,0.00071695,-0.00017152,-0.00419067,0.00259969,-0.00002503,0.001743
 91,0.01339337,0.00940848,-0.00005951,0.00005776,0.00028689,-0.00924405
 ,-0.07622045,-0.07889694,0.00085664,-0.02473021,0.00186738,-0.00443686
 ,-0.00163585,-0.00193261,0.00000613,-0.00000210,-0.00006852,0.00011566
 ,0.00007849,-0.00006395,-0.00007476,-0.00000706,0.00001522,-0.00026846
 ,-0.00004961,0.00010374,0.00007024,0.00030156,0.00043561,0.00122413,-0
 .00063879,-0.00033059,-0.00000605,-0.00002500,-0.00001113,0.01183906,0
 .08682966,0.06991909,0.00047994,0.00045424,0.00038922,-0.00015783,-0.0
 0013240,-0.00045021,0.00033394,-0.00009732,0.00030423,-0.00084846,0.00
 025753,-0.00103591,0.00300731,-0.00033156,-0.00484967,-0.00008238,0.00
 001269,-0.00046990,-0.00091781,0.00682616,-0.00397284,-0.10428982,0.07
 939668,-0.11189647,0.00228715,-0.00293512,0.00400752,0.00019097,-0.000
 44281,0.00012148,-0.00009733,-0.00012987,-0.00000604,0.00001533,0.0001
 4086,0.00018460,-0.00003914,0.00008898,-0.00006105,0.00072231,0.000111
 96,-0.00092660,0.00036450,0.00110284,-0.00034844,0.00002302,0.00001779
 ,-0.00001251,-0.00279881,-0.00070227,0.00189406,0.10204464,0.00010510,
 0.00019736,0.00002857,-0.00016298,-0.00006133,0.00012688,-0.00042171,-
 0.00008194,0.00022978,-0.00129796,-0.00564806,-0.00000761,-0.00059248,
 -0.00079436,-0.00297803,0.00017786,-0.00006167,-0.00022172,-0.00698871
 ,0.01028551,-0.00872952,0.07864556,-0.14139074,0.10745817,0.01402096,-
 0.00458995,0.01756391,0.00001732,0.00012327,0.00003554,-0.00001681,0.0
 0000479,0.00002500,0.00010391,-0.00001652,-0.00012561,-0.00004166,0.00
 004904,0.00005866,0.00149454,0.00007837,0.00093093,-0.00014030,0.00085
 264,-0.00027578,-0.00001779,0.00002540,0.00000594,0.00009459,0.0002471
 3,0.00112904,-0.08444316,0.14029128,-0.00025168,-0.00013641,-0.0002442
 2,0.00000384,-0.00008330,0.00054659,0.00003021,0.00002193,-0.00024397,
 0.00059675,-0.00207993,0.00030085,-0.00343991,-0.00229909,-0.00203313,
 0.00008882,-0.00013884,0.00027606,-0.01028064,0.01767483,-0.00824506,-
 0.10794406,0.10339551,-0.18218626,0.00267885,-0.00310984,0.00244990,-0
 .00007900,0.00025642,-0.00003810,0.00001839,0.00002331,-0.00001113,-0.
 00009529,-0.00001811,0.00003840,-0.00001496,-0.00005255,0.00007576,-0.
 00023773,-0.00003009,0.00092798,-0.00081435,0.00069290,-0.00018092,-0.
 00001251,-0.00000594,0.00001122,0.00216622,-0.00014146,-0.00045231,0.1
 1767373,-0.11482718,0.18853795,-0.00062234,-0.00000156,-0.00051382,-0.
 00023115,0.00190647,-0.00121058,-0.00316586,-0.00158767,0.00023582,-0.
 01934067,-0.00821058,0.00637665,0.00002992,0.00199282,-0.00008256,-0.0
 0064912,-0.00009313,0.00002652,0.00070234,0.00050864,0.00099365,0.0031
 4947,-0.00144555,-0.00106889,-0.22325296,-0.07107112,0.07934721,-0.000
 37943,-0.00071329,0.00045382,-0.00000942,-0.00009923,-0.00000731,0.000
 21512,-0.00002804,-0.00003476,0.00036959,0.00004797,-0.00018137,0.0008
 0968,0.00061058,-0.00000096,0.00010024,-0.00006961,-0.00027966,0.00006
 280,-0.00003492,-0.00008327,-0.00020853,-0.00015336,0.00004034,-0.0003
 4084,-0.00057064,-0.00007276,0.24734844,-0.00027069,0.00017832,-0.0003
 7149,-0.00044132,-0.00010628,0.00032579,0.00104147,0.00018216,0.001148
 46,0.00749664,0.00228411,-0.00213013,-0.00031532,-0.00005428,0.0009141
 6,0.00001402,-0.00039513,-0.00025660,0.00176748,-0.00259545,0.00232366
 ,-0.02738023,-0.01722523,0.00694549,-0.07640254,-0.06672797,0.02996225
 ,0.00044560,0.00005104,-0.00015607,0.00003545,0.00000529,0.00000185,0.
 00012639,-0.00005414,0.00007803,-0.00017613,0.00015161,0.00019768,-0.0
 0021099,0.00021583,-0.00028570,-0.00008093,0.00000121,-0.00000108,-0.0
 0012040,0.00004467,0.00007109,0.00145996,0.00014916,-0.00105307,0.0008
 6095,-0.00016482,-0.00003173,0.08054801,0.07882713,-0.00067516,-0.0008
 1042,-0.00158481,0.00109972,0.00197065,-0.00031043,-0.00175074,-0.0007
 1695,0.00051846,-0.01593083,-0.00745692,0.00408164,0.00118101,-0.00162
 328,0.00123571,-0.00104741,-0.00034981,0.00155155,-0.00298217,0.001116
 09,-0.00273329,0.00185620,0.00402934,0.00041775,0.07939146,0.02701728,
 -0.07645662,0.00025562,-0.00023912,-0.00014122,0.00005008,-0.00000066,
 -0.00006573,-0.00035231,0.00008364,0.00042624,0.00000639,0.00015865,0.
 00008082,0.00067976,0.00027380,0.00084475,0.00027997,0.00008827,-0.000
 34063,-0.00008844,0.00000262,0.00007294,0.00031367,0.00002768,-0.00024
 558,-0.00020253,0.00040544,0.00022249,-0.08645000,-0.03331789,0.083240
 44,0.00027350,-0.00000903,0.00038133,-0.00065637,-0.00070620,-0.000061
 58,0.00000359,-0.00061421,-0.00216109,0.00171849,-0.01212124,-0.017500
 17,-0.00352354,0.00218844,-0.00407196,0.00038103,0.00029306,-0.0001708
 0,0.00181012,-0.00007252,0.00068260,-0.00226629,-0.00258140,0.00093319
 ,-0.05053070,0.02217984,0.03808325,-0.00020299,0.00027241,0.00017299,0
 .00000806,0.00004379,0.00003613,-0.00025413,-0.00037430,0.00004606,-0.
 00020900,0.00033477,-0.00010072,-0.00012893,0.00030489,0.00010056,-0.0
 0000391,-0.00114509,-0.00059921,0.00010329,0.00000226,-0.00003037,0.00
 022571,-0.00018247,-0.00015348,-0.00006278,0.00000169,0.00009975,-0.00
 450741,0.01141631,0.02441002,0.05782093,-0.00039728,-0.00018251,-0.000
 57073,0.00007955,0.00012808,-0.00032449,-0.00006316,0.00047409,0.00064
 247,-0.00231580,0.00331401,0.00699317,0.00244094,-0.00064252,0.0007842
 5,-0.00015431,-0.00031620,0.00032754,0.00069529,-0.00600763,-0.0001512
 1,0.00315011,-0.00951656,-0.02906030,0.01948473,-0.09398557,-0.0994833
 7,0.00012695,-0.00006616,-0.00001495,0.00002259,-0.00000287,-0.0000124
 4,-0.00031314,-0.00018517,0.00043162,-0.00008776,0.00004296,0.00012242
 ,-0.00004233,-0.00007891,-0.00010219,0.00003516,0.00041747,-0.00007953
 ,-0.00006036,0.00001350,0.00006301,-0.00188688,-0.00051148,-0.00049191
 ,-0.00023689,0.00059641,0.00102364,-0.00138400,0.00500312,0.00951810,-
 0.01914496,0.10139479,0.00004466,-0.00027293,-0.00043311,0.00061212,0.
 00063086,0.00099234,0.00187292,-0.00014835,-0.00066754,0.00432294,-0.0
 0814244,-0.01345564,-0.00205724,-0.00024689,-0.00229914,0.00042910,-0.
 00024089,0.00061324,0.00007816,0.00143175,-0.00143642,-0.00082136,0.00
 192794,0.00522606,0.03461931,-0.10046112,-0.25455727,0.00025154,0.0005
 8734,-0.00015620,0.00006119,0.00001201,-0.00005091,-0.00012153,0.00010
 567,0.00046938,-0.00060079,0.00044039,0.00052927,-0.00046941,0.0002691
 4,-0.00037780,-0.00056950,-0.00098246,-0.00002287,-0.00020148,0.000055
 53,0.00013478,0.00014235,0.00004119,0.00015485,-0.00005272,-0.00077426
 ,0.00004015,0.00270597,-0.00453628,-0.01065927,-0.04016075,0.11034192,
 0.27592529,0.00070250,-0.00050842,0.00099386,0.00002994,-0.00199290,-0
 .00008237,-0.01934065,0.00821046,0.00637564,-0.00316594,0.00158769,0.0
 0023570,-0.00023119,-0.00190658,-0.00121042,0.00314842,0.00144606,-0.0
 0106871,-0.00062235,0.00000146,-0.00051376,-0.00064906,0.00009310,0.00
 002645,-0.00037945,0.00071333,0.00045380,-0.22325698,0.07107290,0.0793
 3985,-0.00020849,0.00015335,0.00004028,0.00010025,0.00006958,-0.000279
 67,0.00080965,-0.00061056,-0.00000092,0.00036962,-0.00004799,-0.000181
 39,0.00021513,0.00002805,-0.00003476,-0.00034082,0.00057062,-0.0000728
 3,-0.00000942,0.00009923,-0.00000732,0.00006281,0.00003492,-0.00008329
 ,-0.00005104,0.00014145,-0.00003950,-0.00002883,0.00001032,-0.00015453
 ,0.24735319,-0.00176752,-0.00259573,-0.00232367,0.00031540,-0.00005421
 ,-0.00091401,-0.00749881,0.00228498,0.00213040,-0.00104169,0.00018207,
 -0.00114851,0.00044146,-0.00010658,-0.00032579,0.02738085,-0.01722534,
 -0.00694362,0.00027068,0.00017845,0.00037131,-0.00001408,-0.00039511,0
 .00025677,-0.00044560,0.00005109,0.00015608,0.07640430,-0.06672830,-0.
 02995952,-0.00145991,0.00014923,0.00105293,0.00008096,0.00000120,0.000
 00104,0.00021109,0.00021579,0.00028575,0.00017613,0.00015159,-0.000197
 71,-0.00012644,-0.00005416,-0.00007799,-0.00086096,-0.00016487,0.00003
 175,-0.00003545,0.00000529,-0.00000186,0.00012038,0.00004467,-0.000071
 09,-0.00014147,0.00016825,-0.00015545,-0.00004481,0.00006139,-0.000016
 17,-0.08055008,0.07882796,-0.00298198,-0.00111617,-0.00273302,0.001180
 74,0.00162353,0.00123567,-0.01593043,0.00745659,0.00408068,-0.00175068
 ,0.00071700,0.00051846,0.00109968,-0.00197068,-0.00031022,0.00185394,-
 0.00402783,0.00041870,-0.00067516,0.00081023,-0.00158486,-0.00104732,0
 .00034991,0.00155142,0.00025562,0.00023911,-0.00014124,0.07938353,-0.0
 2701455,-0.07645024,0.00031381,-0.00002772,-0.00024567,0.00028001,-0.0
 0008832,-0.00034063,0.00067976,-0.00027374,0.00084472,0.00000638,-0.00
 015867,0.00008087,-0.00035231,-0.00008360,0.00042625,-0.00020244,-0.00
 040541,0.00022252,0.00005008,0.00000065,-0.00006572,-0.00008845,-0.000
 00262,0.00007296,-0.00003950,0.00015542,-0.00011691,-0.00000480,0.0000
 2105,-0.00003831,-0.08644180,0.03331454,0.08323306,0.00181017,0.000072
 82,0.00068258,-0.00352334,-0.00218891,-0.00407170,0.00171823,0.0121196
 4,-0.01750093,0.00000349,0.00061400,-0.00216116,-0.00065638,0.00070620
 ,-0.00006166,-0.00226633,0.00258169,0.00093201,0.00027348,0.00000906,0
 .00038130,0.00038101,-0.00029305,-0.00017075,-0.00020298,-0.00027240,0
 .00017302,-0.05053018,-0.02217596,0.03808424,0.00022566,0.00018247,-0.
 00015352,-0.00000390,0.00114500,-0.00059933,-0.00012889,-0.00030488,0.
 00010064,-0.00020905,-0.00033479,-0.00010070,-0.00025417,0.00037431,0.
 00004604,-0.00006280,-0.00000171,0.00009979,0.00000806,-0.00004379,0.0
 0003613,0.00010329,-0.00000226,-0.00003037,-0.00002883,0.00004481,-0.0
 0000480,0.00003015,0.00004124,0.00006905,-0.00450728,-0.01141442,0.024
 41131,0.05782059,-0.00069504,-0.00600784,0.00015170,-0.00244121,-0.000
 64268,-0.00078457,0.00231625,0.00331457,-0.00699527,0.00006329,0.00047
 402,-0.00064261,-0.00007955,0.00012799,0.00032463,-0.00315013,-0.00951
 393,0.02906156,0.00039733,-0.00018241,0.00057066,0.00015434,-0.0003162
 2,-0.00032746,-0.00012692,-0.00006621,0.00001495,-0.01948110,-0.093969
 03,0.09947012,0.00188686,-0.00051138,0.00049208,-0.00003523,0.00041761
 ,0.00007946,0.00004231,-0.00007892,0.00010219,0.00008768,0.00004292,-0
 .00012237,0.00031313,-0.00018525,-0.00043154,0.00023688,0.00059639,-0.
 00102368,-0.00002258,-0.00000287,0.00001244,0.00006033,0.00001349,-0.0
 0006299,-0.00001033,0.00006139,-0.00002106,-0.00004123,0.00004976,-0.0
 0002194,0.00138401,0.00500233,-0.00951874,0.01914092,0.10137626,0.0000
 7829,-0.00143130,-0.00143630,-0.00205713,0.00024666,-0.00229916,0.0043
 2279,0.00814124,-0.01345590,0.00187287,0.00014832,-0.00066748,0.000612
 14,-0.00063081,0.00099238,-0.00082102,-0.00192666,0.00522355,0.0000446
 4,0.00027292,-0.00043319,0.00042908,0.00024098,0.00061321,0.00025155,-
 0.00058735,-0.00015615,0.03461985,0.10044787,-0.25457555,0.00014215,-0
 .00004112,0.00015483,-0.00056950,0.00098242,-0.00002299,-0.00046937,-0
 .00026919,-0.00037774,-0.00060077,-0.00044037,0.00052933,-0.00012155,-
 0.00010560,0.00046935,-0.00005276,0.00077420,0.00004017,0.00006119,-0.
 00001201,-0.00005091,-0.00020148,-0.00005553,0.00013480,-0.00015453,0.
 00001616,-0.00003831,0.00006906,0.00002194,0.00006912,0.00270570,0.004
 53481,-0.01065850,-0.04016117,-0.11032758,0.27594542\\-0.00011489,-0.0
 0022777,-0.00044932,-0.00092561,0.00055355,0.00034300,-0.00308833,-0.0
 0006206,0.00247990,0.00308848,-0.00006289,-0.00247974,0.00092619,0.000
 55316,-0.00034181,-0.00078242,-0.00014753,0.00032047,0.00011468,-0.000
 22784,0.00044918,0.00078165,-0.00014668,-0.00032179,0.00037698,-0.0001
 4314,-0.00025572,-0.00037629,-0.00014335,0.00025541,0.00007865,-0.0000
 3385,-0.00007135,0.00002508,-0.00001515,-0.00001433,-0.00000076,0.0000
 9850,0.00006389,0.00000073,0.00009894,-0.00006409,-0.00002541,-0.00001
 517,0.00001371,-0.00004668,0.00000142,0.00000441,-0.00007870,-0.000033
 56,0.00007144,0.00004726,0.00000085,-0.00000375,0.00010416,-0.00001678
 ,0.00010488,-0.00007916,-0.00000699,-0.00003741,-0.00010478,-0.0000165
 9,-0.00010457,0.00007916,-0.00000707,0.00003762\\\@


 A DANDELION FROM A LOVER MEANS MORE THAN AN ORCHID FROM A FRIEND.
 Job cpu time:       0 days  1 hours  3 minutes 59.3 seconds.
 Elapsed time:       0 days  0 hours  0 minutes 41.0 seconds.
 File lengths (MBytes):  RWF=    181 Int=      0 D2E=      0 Chk=     10 Scr=      1
 Normal termination of Gaussian 16 at Mon Jul 28 00:15:56 2025.
