 Entering Gaussian System, Link 0=g16
 Initial command:
 /home/hongchang/data/software/Gaussian/g16/l1.exe "/home/hongchang/data/software/Gaussian/g16/scratch/Gau-1401297.inp" -scrdir="/home/hongchang/data/software/Gaussian/g16/scratch/"
 Entering Link 1 = /home/hongchang/data/software/Gaussian/g16/l1.exe PID=   1401298.
  
 Copyright (c) 1988,1990,1992,1993,1995,1998,2003,2009,2016,
            Gaussian, Inc.  All Rights Reserved.
  
 This is part of the Gaussian(R) 16 program.  It is based on
 the Gaussian(R) 09 system (copyright 2009, Gaussian, Inc.),
 the Gaussian(R) 03 system (copyright 2003, Gaussian, Inc.),
 the Gaussian(R) 98 system (copyright 1998, Gaussian, Inc.),
 the Gaussian(R) 94 system (copyright 1995, Gaussian, Inc.),
 the Gaussian 92(TM) system (copyright 1992, Gaussian, Inc.),
 the Gaussian 90(TM) system (copyright 1990, Gaussian, Inc.),
 the Gaussian 88(TM) system (copyright 1988, Gaussian, Inc.),
 the Gaussian 86(TM) system (copyright 1986, Carnegie Mellon
 University), and the Gaussian 82(TM) system (copyright 1983,
 Carnegie Mellon University). Gaussian is a federally registered
 trademark of Gaussian, Inc.
  
 This software contains proprietary and confidential information,
 including trade secrets, belonging to Gaussian, Inc.
  
 This software is provided under written license and may be
 used, copied, transmitted, or stored only in accord with that
 written license.
  
 The following legend is applicable only to US Government
 contracts under FAR:
  
                    RESTRICTED RIGHTS LEGEND
  
 Use, reproduction and disclosure by the US Government is
 subject to restrictions as set forth in subparagraphs (a)
 and (c) of the Commercial Computer Software - Restricted
 Rights clause in FAR 52.227-19.
  
 Gaussian, Inc.
 340 Quinnipiac St., Bldg. 40, Wallingford CT 06492
  
  
 ---------------------------------------------------------------
 Warning -- This program may not be used in any manner that
 competes with the business of Gaussian, Inc. or will provide
 assistance to any competitor of Gaussian, Inc.  The licensee
 of this program is prohibited from giving any competitor of
 Gaussian, Inc. access to this program.  By using this program,
 the user acknowledges that Gaussian, Inc. is engaged in the
 business of creating and licensing software in the field of
 computational chemistry and represents and warrants to the
 licensee that it is not a competitor of Gaussian, Inc. and that
 it will not use this program in any manner prohibited above.
 ---------------------------------------------------------------
  

 Cite this work as:
 Gaussian 16, Revision A.03,
 M. J. Frisch, G. W. Trucks, H. B. Schlegel, G. E. Scuseria, 
 M. A. Robb, J. R. Cheeseman, G. Scalmani, V. Barone, 
 G. A. Petersson, H. Nakatsuji, X. Li, M. Caricato, A. V. Marenich, 
 J. Bloino, B. G. Janesko, R. Gomperts, B. Mennucci, H. P. Hratchian, 
 J. V. Ortiz, A. F. Izmaylov, J. L. Sonnenberg, D. Williams-Young, 
 F. Ding, F. Lipparini, F. Egidi, J. Goings, B. Peng, A. Petrone, 
 T. Henderson, D. Ranasinghe, V. G. Zakrzewski, J. Gao, N. Rega, 
 G. Zheng, W. Liang, M. Hada, M. Ehara, K. Toyota, R. Fukuda, 
 J. Hasegawa, M. Ishida, T. Nakajima, Y. Honda, O. Kitao, H. Nakai, 
 T. Vreven, K. Throssell, J. A. Montgomery, Jr., J. E. Peralta, 
 F. Ogliaro, M. J. Bearpark, J. J. Heyd, E. N. Brothers, K. N. Kudin, 
 V. N. Staroverov, T. A. Keith, R. Kobayashi, J. Normand, 
 K. Raghavachari, A. P. Rendell, J. C. Burant, S. S. Iyengar, 
 J. Tomasi, M. Cossi, J. M. Millam, M. Klene, C. Adamo, R. Cammi, 
 J. W. Ochterski, R. L. Martin, K. Morokuma, O. Farkas, 
 J. B. Foresman, and D. J. Fox, Gaussian, Inc., Wallingford CT, 2016.
 
 ******************************************
 Gaussian 16:  ES64L-G16RevA.03 25-Dec-2016
                28-Jul-2025 
 ******************************************
 %nprocshared=96
 Will use up to   96 processors via shared memory.
 %mem=600GB
 %chk=01_02_path2_7.chk
 -----------------------------------------------------------
 # freq b3lyp/6-311g(d,p) em=gd3bj scrf(solvent=Cis-Decalin)
 -----------------------------------------------------------
 1/10=4,30=1,38=1/1,3;
 2/12=2,17=6,18=5,40=1/2;
 3/5=4,6=6,7=101,11=2,25=1,30=1,70=2201,71=2,72=99,74=-5,124=41,140=1/1,2,3;
 4//1;
 5/5=2,38=5,53=99,98=1/2;
 8/6=4,10=90,11=11/1;
 11/6=1,8=1,9=11,15=111,16=1/1,2,10;
 10/6=1/2;
 6/7=2,8=2,9=2,10=2,28=1/1;
 7/8=1,10=1,25=1/1,2,3,16;
 1/10=4,30=1/3;
 99//99;
 -------------
 01_02_path2_7
 -------------
 Symbolic Z-matrix:
 Charge =  0 Multiplicity = 1
 C                    -1.357    -1.15431   0.67588 
 C                    -0.69481  -0.11696   1.35139 
 C                    -0.71136   1.06778   0.49817 
 C                     0.71134   1.06774  -0.49826 
 C                     0.69478  -0.1171   -1.35137 
 C                    -1.89326  -0.68668  -0.50284 
 C                     1.35702  -1.15436  -0.67577 
 C                     1.8933   -0.6866    0.50289 
 C                     1.86807   0.81605   0.48015 
 C                    -1.86808   0.81597  -0.48024 
 H                    -1.3665   -2.18862   0.99638 
 H                    -0.25677  -0.17692   2.33577 
 H                    -0.68847   2.03593   0.99494 
 H                     0.68843   2.03583  -0.99514 
 H                     0.25675  -0.17716  -2.33574 
 H                    -2.42731  -1.27654  -1.23522 
 H                     1.36654  -2.1887   -0.99616 
 H                     2.42737  -1.27638   1.23532 
 H                     2.8037    1.20017   0.04847 
 H                     1.73347   1.29006   1.45422 
 H                    -2.80373   1.2001   -0.04859 
 H                    -1.73348   1.2899   -1.45434 
 

 GradGradGradGradGradGradGradGradGradGradGradGradGradGradGradGradGradGrad
 Berny optimization.
 Initialization pass.
 Trust Radius=3.00D-01 FncErr=1.00D-07 GrdErr=1.00D-07 EigMax=2.50D+02 EigMin=1.00D-04
 Number of steps in this run=      2 maximum allowed number of steps=      2.
 GradGradGradGradGradGradGradGradGradGradGradGradGradGradGradGradGradGrad

                          Input orientation:                          
 ---------------------------------------------------------------------
 Center     Atomic      Atomic             Coordinates (Angstroms)
 Number     Number       Type             X           Y           Z
 ---------------------------------------------------------------------
      1          6           0       -1.356999   -1.154307    0.675883
      2          6           0       -0.694805   -0.116962    1.351393
      3          6           0       -0.711362    1.067785    0.498166
      4          6           0        0.711335    1.067739   -0.498264
      5          6           0        0.694784   -0.117097   -1.351369
      6          6           0       -1.893259   -0.686677   -0.502836
      7          6           0        1.357020   -1.154360   -0.675766
      8          6           0        1.893298   -0.686599    0.502889
      9          6           0        1.868069    0.816047    0.480154
     10          6           0       -1.868080    0.815972   -0.480240
     11          1           0       -1.366497   -2.188617    0.996377
     12          1           0       -0.256766   -0.176922    2.335766
     13          1           0       -0.688470    2.035932    0.994939
     14          1           0        0.688427    2.035833   -0.995140
     15          1           0        0.256752   -0.177159   -2.335739
     16          1           0       -2.427309   -1.276540   -1.235220
     17          1           0        1.366536   -2.188702   -0.996157
     18          1           0        2.427373   -1.276377    1.235324
     19          1           0        2.803700    1.200169    0.048466
     20          1           0        1.733465    1.290064    1.454215
     21          1           0       -2.803726    1.200104   -0.048594
     22          1           0       -1.733481    1.289904   -1.454343
 ---------------------------------------------------------------------
                    Distance matrix (angstroms):
                    1          2          3          4          5
     1  C    0.000000
     2  C    1.403887   0.000000
     3  C    2.320802   1.460101   0.000000
     4  C    3.254860   2.608060   1.736934   0.000000
     5  C    3.065187   3.039059   2.608059   1.460102   0.000000
     6  C    1.376819   2.280139   2.340304   3.140367   2.782516
     7  C    3.031972   3.065217   3.254881   2.320806   1.403891
     8  C    3.288329   2.782575   3.140404   2.340309   2.280141
     9  C    3.784398   2.863195   2.591749   1.535801   2.366819
    10  C    2.340902   2.366816   1.535801   2.591736   2.863172
    11  H    1.082868   2.206572   3.358805   4.141883   3.748598
    12  H    2.218334   1.079103   2.265552   3.243166   3.808411
    13  H    3.275111   2.182213   1.088401   2.264179   3.471900
    14  H    4.141628   3.471898   2.264175   1.088401   2.182212
    15  H    3.553713   3.808415   3.243169   2.265553   1.079103
    16  H    2.193814   3.322162   3.383040   3.986206   3.332456
    17  H    3.359067   3.748630   4.141904   3.358808   2.206575
    18  H    3.827447   3.332523   3.986246   3.383045   3.322164
    19  H    4.821683   3.958786   3.546183   2.166666   2.853464
    20  H    4.016431   2.808343   2.634505   2.215029   3.306095
    21  H    2.856770   2.853450   2.166666   3.546178   3.958764
    22  H    3.264011   3.306097   2.215029   2.634496   2.808332
                    6          7          8          9         10
     6  C    0.000000
     7  C    3.288304   0.000000
     8  C    3.917843   1.376816   0.000000
     9  C    4.167978   2.340903   1.503030   0.000000
    10  C    1.503030   3.784403   4.168000   3.857611   0.000000
    11  H    2.186536   3.359062   3.622962   4.444874   3.385194
    12  H    3.315965   3.553733   2.870886   2.990687   3.392943
    13  H    3.332784   4.141648   3.784153   2.879065   2.248541
    14  H    3.784115   3.275110   3.332783   2.248539   2.879047
    15  H    2.870834   2.218338   3.315965   3.392942   2.990668
    16  H    1.081450   3.827409   4.694326   5.076584   2.293761
    17  H    3.622942   1.082869   2.186534   3.385195   4.444882
    18  H    4.694338   2.193811   1.081451   2.293761   5.076613
    19  H    5.091713   2.856782   2.143648   1.099686   4.717273
    20  H    4.570632   3.264007   2.199492   1.091607   4.115581
    21  H    2.143648   4.821686   5.091740   4.717281   1.099686
    22  H    2.199492   4.016442   4.570651   4.115578   1.091607
                   11         12         13         14         15
    11  H    0.000000
    12  H    2.659395   0.000000
    13  H    4.278614   2.623149   0.000000
    14  H    5.102434   4.109089   2.419971   0.000000
    15  H    4.217096   4.699645   4.109091   2.623144   0.000000
    16  H    2.633863   4.321152   4.355415   4.553819   3.102251
    17  H    3.382257   4.217117   5.102455   4.278613   2.659400
    18  H    3.909313   3.102318   4.553861   4.355415   4.321153
    19  H    5.456459   4.061351   3.713430   2.502364   3.750788
    20  H    4.681944   2.624919   2.575466   2.765432   4.324023
    21  H    3.826359   3.750784   2.502374   3.713425   4.061331
    22  H    4.270927   4.324025   2.765427   2.575445   2.624911
                   16         17         18         19         20
    16  H    0.000000
    17  H    3.909277   0.000000
    18  H    5.447158   2.633860   0.000000
    19  H    5.928355   3.826372   2.771919   0.000000
    20  H    5.579656   4.270922   2.667591   1.769072   0.000000
    21  H    2.771919   5.456461   5.928389   5.608266   4.780442
    22  H    2.667592   4.681959   5.579679   4.780429   4.525420
                   21         22
    21  H    0.000000
    22  H    1.769073   0.000000
 Stoichiometry    C10H12
 Framework group  C1[X(C10H12)]
 Deg. of freedom    60
 Full point group                 C1      NOp   1
 Largest Abelian subgroup         C1      NOp   1
 Largest concise Abelian subgroup C1      NOp   1
                         Standard orientation:                         
 ---------------------------------------------------------------------
 Center     Atomic      Atomic             Coordinates (Angstroms)
 Number     Number       Type             X           Y           Z
 ---------------------------------------------------------------------
      1          6           0        1.345307    1.166503    0.698840
      2          6           0        0.671712    0.129180    1.363016
      3          6           0        0.702779   -1.055593    0.510229
      4          6           0       -0.702758   -1.055572   -0.510263
      5          6           0       -0.671690    0.129239   -1.362998
      6          6           0        1.901543    0.698836   -0.470570
      7          6           0       -1.345321    1.166524   -0.698791
      8          6           0       -1.901578    0.698800    0.470582
      9          6           0       -1.875971   -0.803847    0.448325
     10          6           0        1.875978   -0.803813   -0.448361
     11          1           0        1.349354    2.200822    1.019418
     12          1           0        0.216988    0.189170    2.339792
     13          1           0        0.671435   -2.023725    1.006570
     14          1           0       -0.671403   -2.023681   -1.006648
     15          1           0       -0.216972    0.189270   -2.339774
     16          1           0        2.447979    1.288675   -1.193779
     17          1           0       -1.349381    2.200856   -1.019329
     18          1           0       -2.448035    1.288601    1.193807
     19          1           0       -2.804123   -1.187979    0.000791
     20          1           0       -1.757962   -1.277835    1.424549
     21          1           0        2.804143   -1.187935   -0.000847
     22          1           0        1.757971   -1.277773   -1.424599
 ---------------------------------------------------------------------
 Rotational constants (GHZ):           2.4153915           1.3621177           1.2926756
 Standard basis: 6-311G(d,p) (5D, 7F)
 There are   262 symmetry adapted cartesian basis functions of A   symmetry.
 There are   252 symmetry adapted basis functions of A   symmetry.
   252 basis functions,   416 primitive gaussians,   262 cartesian basis functions
    36 alpha electrons       36 beta electrons
       nuclear repulsion energy       524.8249291253 Hartrees.
 NAtoms=   22 NActive=   22 NUniq=   22 SFac= 1.00D+00 NAtFMM=   60 NAOKFM=F Big=F
 Integral buffers will be    131072 words long.
 Raffenetti 2 integral format.
 Two-electron integral symmetry is turned on.
 Nuclear repulsion after empirical dispersion term =      524.7790861043 Hartrees.
 Force inversion solution in PCM.
 ------------------------------------------------------------------------------
 Polarizable Continuum Model (PCM)
 =================================
 Model                : PCM.
 Atomic radii         : UFF (Universal Force Field).
 Polarization charges : Total charges.
 Charge compensation  : None.
 Solution method      : Matrix inversion.
 Cavity type          : Scaled VdW (van der Waals Surface) (Alpha=1.100).
 Cavity algorithm     : GePol (No added spheres)
                        Default sphere list used, NSphG=   22.
                        Lebedev-Laikov grids with approx.  5.0 points / Ang**2.
                        Smoothing algorithm: York/Karplus (Gamma=1.0000).
                        Polarization charges: spherical gaussians, with
                                              point-specific exponents (IZeta= 3).
                        Self-potential: point-specific (ISelfS= 7).
                        Self-field    : sphere-specific E.n sum rule (ISelfD= 2).
 1st derivatives      : Analytical E(r).r(x)/FMM algorithm (CHGder, D1EAlg=3).
                        Cavity 1st derivative terms included.
 2nd derivatives      : Analytical E(r).r(xy)/FMM algorithm (CHGder, D2EAlg=3).
                        Cavity 2nd derivative terms included.
 Solvent              : Cis-Decalin, Eps=   2.213900 Eps(inf)=   2.193361
 ------------------------------------------------------------------------------
 One-electron integrals computed using PRISM.
 NBasis=   252 RedAO= T EigKep=  5.10D-04  NBF=   252
 NBsUse=   252 1.00D-06 EigRej= -1.00D+00 NBFU=   252
 ExpMin= 1.03D-01 ExpMax= 4.56D+03 ExpMxC= 6.82D+02 IAcc=3 IRadAn=         5 AccDes= 0.00D+00
 Harris functional with IExCor=  402 and IRadAn=       5 diagonalized for initial guess.
 HarFok:  IExCor=  402 AccDes= 0.00D+00 IRadAn=         5 IDoV= 1 UseB2=F ITyADJ=14
 ICtDFT=  3500011 ScaDFX=  1.000000  1.000000  1.000000  1.000000
 FoFCou: FMM=F IPFlag=           0 FMFlag=      100000 FMFlg1=           0
         NFxFlg=           0 DoJE=T BraDBF=F KetDBF=T FulRan=T
         wScrn=  0.000000 ICntrl=       500 IOpCl=  0 I1Cent=   200000004 NGrid=           0
         NMat0=    1 NMatS0=      1 NMatT0=    0 NMatD0=    1 NMtDS0=    0 NMtDT0=    0
 Petite list used in FoFCou.
 Requested convergence on RMS density matrix=1.00D-08 within 128 cycles.
 Requested convergence on MAX density matrix=1.00D-06.
 Requested convergence on             energy=1.00D-06.
 No special actions if energy rises.
 Inv3:  Mode=1 IEnd=     7300800.
 Iteration    1 A*A^-1 deviation from unit magnitude is 4.77D-15 for   1542.
 Iteration    1 A*A^-1 deviation from orthogonality  is 2.45D-15 for   1544   1043.
 Iteration    1 A^-1*A deviation from unit magnitude is 5.00D-15 for   1542.
 Iteration    1 A^-1*A deviation from orthogonality  is 1.73D-15 for   1051    338.
 Error on total polarization charges =  0.00616
 SCF Done:  E(RB3LYP) =  -388.321756091     A.U. after   11 cycles
            NFock= 11  Conv=0.74D-08     -V/T= 2.0049
 DoSCS=F DFT=T ScalE2(SS,OS)=  1.000000  1.000000
 Range of M.O.s used for correlation:     1   252
 NBasis=   252 NAE=    36 NBE=    36 NFC=     0 NFV=     0
 NROrb=    252 NOA=    36 NOB=    36 NVA=   216 NVB=   216
 Symmetrizing basis deriv contribution to polar:
 IMax=3 JMax=2 DiffMx= 0.00D+00
 G2DrvN: will do    23 centers at a time, making    1 passes.
 Calling FoFCou, ICntrl=  3107 FMM=F I1Cent=   0 AccDes= 0.00D+00.
 NEqPCM:  Using equilibrium solvation (IEInf=0, Eps=   2.2139, EpsInf=   2.1934)
 G2PCM: DoFxE=T DoFxN=T DoGrad=T DoDP/DQ/DG/TGxP=FFFF NFrqRd=   0 IEInf=0 SqF1=F DoCFld=F IF1Alg=4.
 End of G2Drv F.D. properties file   721 does not exist.
 End of G2Drv F.D. properties file   722 does not exist.
 End of G2Drv F.D. properties file   788 does not exist.
          IDoAtm=1111111111111111111111
 NEqPCM:  Using equilibrium solvation (IEInf=0, Eps=   2.2139, EpsInf=   2.1934)
          Differentiating once with respect to electric field.
                with respect to dipole field.
          Differentiating once with respect to nuclear coordinates.
 Keep R1 ints in memory in canonical form, NReq=612588626.
          There are    69 degrees of freedom in the 1st order CPHF.  IDoFFX=6 NUNeed=     3.
     66 vectors produced by pass  0 Test12= 1.13D-14 1.45D-09 XBig12= 4.10D+02 1.85D+01.
 AX will form    66 AO Fock derivatives at one time.
     66 vectors produced by pass  1 Test12= 1.13D-14 1.45D-09 XBig12= 8.42D+01 1.45D+00.
     66 vectors produced by pass  2 Test12= 1.13D-14 1.45D-09 XBig12= 7.75D-01 1.23D-01.
     66 vectors produced by pass  3 Test12= 1.13D-14 1.45D-09 XBig12= 1.59D-03 5.38D-03.
     66 vectors produced by pass  4 Test12= 1.13D-14 1.45D-09 XBig12= 2.35D-06 2.31D-04.
     48 vectors produced by pass  5 Test12= 1.13D-14 1.45D-09 XBig12= 2.60D-09 7.01D-06.
      7 vectors produced by pass  6 Test12= 1.13D-14 1.45D-09 XBig12= 3.02D-12 2.06D-07.
      3 vectors produced by pass  7 Test12= 1.13D-14 1.45D-09 XBig12= 3.36D-15 6.07D-09.
 InvSVY:  IOpt=1 It=  1 EMax= 3.55D-15
 Solved reduced A of dimension   388 with    69 vectors.
 Isotropic polarizability for W=    0.000000      136.20 Bohr**3.
 End of Minotr F.D. properties file   721 does not exist.
 End of Minotr F.D. properties file   722 does not exist.
 End of Minotr F.D. properties file   788 does not exist.

 **********************************************************************

            Population analysis using the SCF density.

 **********************************************************************

 Orbital symmetries:
       Occupied  (A) (A) (A) (A) (A) (A) (A) (A) (A) (A) (A) (A)
                 (A) (A) (A) (A) (A) (A) (A) (A) (A) (A) (A) (A)
                 (A) (A) (A) (A) (A) (A) (A) (A) (A) (A) (A) (A)
       Virtual   (A) (A) (A) (A) (A) (A) (A) (A) (A) (A) (A) (A)
                 (A) (A) (A) (A) (A) (A) (A) (A) (A) (A) (A) (A)
                 (A) (A) (A) (A) (A) (A) (A) (A) (A) (A) (A) (A)
                 (A) (A) (A) (A) (A) (A) (A) (A) (A) (A) (A) (A)
                 (A) (A) (A) (A) (A) (A) (A) (A) (A) (A) (A) (A)
                 (A) (A) (A) (A) (A) (A) (A) (A) (A) (A) (A) (A)
                 (A) (A) (A) (A) (A) (A) (A) (A) (A) (A) (A) (A)
                 (A) (A) (A) (A) (A) (A) (A) (A) (A) (A) (A) (A)
                 (A) (A) (A) (A) (A) (A) (A) (A) (A) (A) (A) (A)
                 (A) (A) (A) (A) (A) (A) (A) (A) (A) (A) (A) (A)
                 (A) (A) (A) (A) (A) (A) (A) (A) (A) (A) (A) (A)
                 (A) (A) (A) (A) (A) (A) (A) (A) (A) (A) (A) (A)
                 (A) (A) (A) (A) (A) (A) (A) (A) (A) (A) (A) (A)
                 (A) (A) (A) (A) (A) (A) (A) (A) (A) (A) (A) (A)
                 (A) (A) (A) (A) (A) (A) (A) (A) (A) (A) (A) (A)
                 (A) (A) (A) (A) (A) (A) (A) (A) (A) (A) (A) (A)
                 (A) (A) (A) (A) (A) (A) (A) (A) (A) (A) (A) (A)
                 (A) (A) (A) (A) (A) (A) (A) (A) (A) (A) (A) (A)
 The electronic state is 1-A.
 Alpha  occ. eigenvalues --  -10.18123 -10.18116 -10.16810 -10.16809 -10.16740
 Alpha  occ. eigenvalues --  -10.16740 -10.16300 -10.16298 -10.16099 -10.16098
 Alpha  occ. eigenvalues --   -0.87224  -0.83545  -0.72692  -0.70733  -0.68982
 Alpha  occ. eigenvalues --   -0.67642  -0.56788  -0.55007  -0.53176  -0.51492
 Alpha  occ. eigenvalues --   -0.51432  -0.49661  -0.45812  -0.42343  -0.38992
 Alpha  occ. eigenvalues --   -0.37964  -0.37679  -0.36979  -0.36496  -0.35708
 Alpha  occ. eigenvalues --   -0.35096  -0.33411  -0.32147  -0.28889  -0.25575
 Alpha  occ. eigenvalues --   -0.17561
 Alpha virt. eigenvalues --   -0.04863   0.02448   0.04656   0.05041   0.07451
 Alpha virt. eigenvalues --    0.07705   0.07769   0.09666   0.09748   0.10689
 Alpha virt. eigenvalues --    0.11055   0.12893   0.13918   0.14644   0.15202
 Alpha virt. eigenvalues --    0.18689   0.19680   0.20226   0.21574   0.22195
 Alpha virt. eigenvalues --    0.25687   0.27737   0.30426   0.31098   0.31799
 Alpha virt. eigenvalues --    0.33005   0.35309   0.36799   0.37565   0.37807
 Alpha virt. eigenvalues --    0.39112   0.40615   0.41996   0.42613   0.43181
 Alpha virt. eigenvalues --    0.44060   0.45403   0.45983   0.46934   0.50124
 Alpha virt. eigenvalues --    0.51126   0.51983   0.54859   0.54955   0.55581
 Alpha virt. eigenvalues --    0.56323   0.58611   0.58986   0.59494   0.59583
 Alpha virt. eigenvalues --    0.60577   0.60758   0.62066   0.63712   0.63896
 Alpha virt. eigenvalues --    0.64259   0.65758   0.66201   0.66924   0.68655
 Alpha virt. eigenvalues --    0.70269   0.70787   0.72402   0.75042   0.75209
 Alpha virt. eigenvalues --    0.77117   0.81290   0.81585   0.85386   0.86337
 Alpha virt. eigenvalues --    0.88369   0.90453   0.92273   0.97205   0.99733
 Alpha virt. eigenvalues --    1.05199   1.05950   1.08094   1.11732   1.14293
 Alpha virt. eigenvalues --    1.16786   1.20769   1.20875   1.22539   1.23372
 Alpha virt. eigenvalues --    1.27061   1.35424   1.38084   1.39428   1.43004
 Alpha virt. eigenvalues --    1.45746   1.48871   1.49465   1.50012   1.50267
 Alpha virt. eigenvalues --    1.52232   1.52998   1.54122   1.55587   1.57399
 Alpha virt. eigenvalues --    1.58129   1.59635   1.59891   1.60351   1.61712
 Alpha virt. eigenvalues --    1.64280   1.65925   1.67074   1.68270   1.71650
 Alpha virt. eigenvalues --    1.72474   1.73124   1.74581   1.76281   1.76898
 Alpha virt. eigenvalues --    1.77269   1.80760   1.81847   1.82949   1.83038
 Alpha virt. eigenvalues --    1.84097   1.85693   1.85888   1.88054   1.89476
 Alpha virt. eigenvalues --    1.91984   1.93548   1.93806   1.96971   1.97898
 Alpha virt. eigenvalues --    2.01173   2.01265   2.02974   2.06858   2.08358
 Alpha virt. eigenvalues --    2.13340   2.13412   2.16012   2.16048   2.19244
 Alpha virt. eigenvalues --    2.21626   2.21630   2.27239   2.28280   2.32511
 Alpha virt. eigenvalues --    2.36080   2.36678   2.39025   2.41356   2.42678
 Alpha virt. eigenvalues --    2.45389   2.46050   2.47207   2.48820   2.49379
 Alpha virt. eigenvalues --    2.52209   2.60169   2.61381   2.61454   2.62814
 Alpha virt. eigenvalues --    2.67013   2.67325   2.68225   2.68721   2.70966
 Alpha virt. eigenvalues --    2.71130   2.74614   2.76178   2.76187   2.78094
 Alpha virt. eigenvalues --    2.80254   2.83880   2.86069   2.88080   2.90829
 Alpha virt. eigenvalues --    2.92109   2.92696   2.98402   3.01399   3.03080
 Alpha virt. eigenvalues --    3.07826   3.10080   3.11471   3.17398   3.19113
 Alpha virt. eigenvalues --    3.29485   3.31365   3.41409   3.41961   3.42614
 Alpha virt. eigenvalues --    3.45202   3.54772   3.58019   3.70748   3.77569
 Alpha virt. eigenvalues --    3.91579   4.03873   4.04454   4.07498   4.09514
 Alpha virt. eigenvalues --    4.10686   4.13906   4.20066   4.20948   4.47551
 Alpha virt. eigenvalues --    4.48799  23.64144  23.76697  23.87139  23.88611
 Alpha virt. eigenvalues --   23.92854  23.99491  24.03149  24.06891  24.17655
 Alpha virt. eigenvalues --   24.18996
          Condensed to atoms (all electrons):
               1          2          3          4          5          6
     1  C    4.861183   0.485652  -0.077057  -0.008694   0.008425   0.527144
     2  C    0.485652   5.118889   0.424349  -0.069920  -0.070612  -0.097613
     3  C   -0.077057   0.424349   5.169980   0.231460  -0.069921  -0.079368
     4  C   -0.008694  -0.069920   0.231460   5.169981   0.424349  -0.022829
     5  C    0.008425  -0.070612  -0.069921   0.424349   5.118894   0.065397
     6  C    0.527144  -0.097613  -0.079368  -0.022829   0.065397   5.123734
     7  C   -0.019929   0.008425  -0.008693  -0.077057   0.485644  -0.013256
     8  C   -0.013254   0.065388  -0.022827  -0.079368  -0.097612  -0.004782
     9  C    0.000114  -0.014849  -0.053771   0.376507  -0.088936   0.000910
    10  C   -0.086466  -0.088935   0.376506  -0.053772  -0.014850   0.362668
    11  H    0.422051  -0.044235   0.006855  -0.000275   0.000690  -0.045546
    12  H   -0.034669   0.417420  -0.037966  -0.000625   0.000194   0.006674
    13  H    0.007327  -0.036675   0.406897  -0.029915   0.006477   0.007171
    14  H   -0.000395   0.006477  -0.029915   0.406897  -0.036675  -0.000352
    15  H   -0.000656   0.000194  -0.000625  -0.037966   0.417419   0.001961
    16  H   -0.038403   0.008601   0.004983   0.000401  -0.001781   0.416245
    17  H    0.001708   0.000689  -0.000275   0.006855  -0.044236   0.000109
    18  H    0.000193  -0.001781   0.000401   0.004983   0.008601   0.000063
    19  H   -0.000191   0.004369   0.007841  -0.033233   0.001527  -0.000309
    20  H    0.000880  -0.003985  -0.002789  -0.042991   0.008960   0.000089
    21  H   -0.001894   0.001527  -0.033233   0.007841   0.004369  -0.043174
    22  H    0.006243   0.008960  -0.042990  -0.002789  -0.003985  -0.038660
               7          8          9         10         11         12
     1  C   -0.019929  -0.013254   0.000114  -0.086466   0.422051  -0.034669
     2  C    0.008425   0.065388  -0.014849  -0.088935  -0.044235   0.417420
     3  C   -0.008693  -0.022827  -0.053771   0.376506   0.006855  -0.037966
     4  C   -0.077057  -0.079368   0.376507  -0.053772  -0.000275  -0.000625
     5  C    0.485644  -0.097612  -0.088936  -0.014850   0.000690   0.000194
     6  C   -0.013256  -0.004782   0.000910   0.362668  -0.045546   0.006674
     7  C    4.861181   0.527153  -0.086465   0.000114   0.001708  -0.000656
     8  C    0.527153   5.123725   0.362667   0.000910   0.000109   0.001962
     9  C   -0.086465   0.362667   4.903537   0.006841  -0.000070  -0.000125
    10  C    0.000114   0.000910   0.006841   4.903540   0.008074   0.005949
    11  H    0.001708   0.000109  -0.000070   0.008074   0.573061  -0.003451
    12  H   -0.000656   0.001962  -0.000125   0.005949  -0.003451   0.544629
    13  H   -0.000396  -0.000352  -0.003859  -0.028037  -0.000269  -0.003389
    14  H    0.007327   0.007171  -0.028037  -0.003859   0.000045  -0.000159
    15  H   -0.034668   0.006674   0.005949  -0.000126  -0.000050   0.000004
    16  H    0.000193   0.000063   0.000009  -0.036419  -0.004503  -0.000319
    17  H    0.422051  -0.045545   0.008074  -0.000070   0.000037  -0.000050
    18  H   -0.038403   0.416245  -0.036420   0.000009   0.000018   0.000352
    19  H   -0.001894  -0.043174   0.391197  -0.000321  -0.000003   0.000119
    20  H    0.006243  -0.038660   0.409658   0.000486  -0.000009  -0.000373
    21  H   -0.000191  -0.000309  -0.000321   0.391196  -0.000304  -0.000139
    22  H    0.000880   0.000089   0.000486   0.409659  -0.000261  -0.000314
              13         14         15         16         17         18
     1  C    0.007327  -0.000395  -0.000656  -0.038403   0.001708   0.000193
     2  C   -0.036675   0.006477   0.000194   0.008601   0.000689  -0.001781
     3  C    0.406897  -0.029915  -0.000625   0.004983  -0.000275   0.000401
     4  C   -0.029915   0.406897  -0.037966   0.000401   0.006855   0.004983
     5  C    0.006477  -0.036675   0.417419  -0.001781  -0.044236   0.008601
     6  C    0.007171  -0.000352   0.001961   0.416245   0.000109   0.000063
     7  C   -0.000396   0.007327  -0.034668   0.000193   0.422051  -0.038403
     8  C   -0.000352   0.007171   0.006674   0.000063  -0.045545   0.416245
     9  C   -0.003859  -0.028037   0.005949   0.000009   0.008074  -0.036420
    10  C   -0.028037  -0.003859  -0.000126  -0.036419  -0.000070   0.000009
    11  H   -0.000269   0.000045  -0.000050  -0.004503   0.000037   0.000018
    12  H   -0.003389  -0.000159   0.000004  -0.000319  -0.000050   0.000352
    13  H    0.556268  -0.004810  -0.000159  -0.000364   0.000045   0.000029
    14  H   -0.004810   0.556268  -0.003389   0.000029  -0.000269  -0.000364
    15  H   -0.000159  -0.003389   0.544628   0.000352  -0.003451  -0.000319
    16  H   -0.000364   0.000029   0.000352   0.558057   0.000018   0.000001
    17  H    0.000045  -0.000269  -0.003451   0.000018   0.573061  -0.004503
    18  H    0.000029  -0.000364  -0.000319   0.000001  -0.004503   0.558057
    19  H   -0.000387  -0.003074  -0.000139   0.000001  -0.000304   0.000437
    20  H    0.002811  -0.000785  -0.000314  -0.000005  -0.000261  -0.002228
    21  H   -0.003073  -0.000387   0.000118   0.000437  -0.000003   0.000001
    22  H   -0.000785   0.002811  -0.000373  -0.002228  -0.000009  -0.000005
              19         20         21         22
     1  C   -0.000191   0.000880  -0.001894   0.006243
     2  C    0.004369  -0.003985   0.001527   0.008960
     3  C    0.007841  -0.002789  -0.033233  -0.042990
     4  C   -0.033233  -0.042991   0.007841  -0.002789
     5  C    0.001527   0.008960   0.004369  -0.003985
     6  C   -0.000309   0.000089  -0.043174  -0.038660
     7  C   -0.001894   0.006243  -0.000191   0.000880
     8  C   -0.043174  -0.038660  -0.000309   0.000089
     9  C    0.391197   0.409658  -0.000321   0.000486
    10  C   -0.000321   0.000486   0.391196   0.409659
    11  H   -0.000003  -0.000009  -0.000304  -0.000261
    12  H    0.000119  -0.000373  -0.000139  -0.000314
    13  H   -0.000387   0.002811  -0.003073  -0.000785
    14  H   -0.003074  -0.000785  -0.000387   0.002811
    15  H   -0.000139  -0.000314   0.000118  -0.000373
    16  H    0.000001  -0.000005   0.000437  -0.002228
    17  H   -0.000304  -0.000261  -0.000003  -0.000009
    18  H    0.000437  -0.002228   0.000001  -0.000005
    19  H    0.585192  -0.032974  -0.000018  -0.000029
    20  H   -0.032974   0.582160  -0.000029  -0.000027
    21  H   -0.000018  -0.000029   0.585192  -0.032974
    22  H   -0.000029  -0.000027  -0.032974   0.582160
 Mulliken charges:
               1
     1  C   -0.039310
     2  C   -0.122336
     3  C   -0.169841
     4  C   -0.169841
     5  C   -0.122340
     6  C   -0.166274
     7  C   -0.039310
     8  C   -0.166271
     9  C   -0.153097
    10  C   -0.153096
    11  H    0.086329
    12  H    0.104934
    13  H    0.125447
    14  H    0.125448
    15  H    0.104936
    16  H    0.094633
    17  H    0.086329
    18  H    0.094633
    19  H    0.125369
    20  H    0.114144
    21  H    0.125369
    22  H    0.114144
 Sum of Mulliken charges =  -0.00000
 Mulliken charges with hydrogens summed into heavy atoms:
               1
     1  C    0.047019
     2  C   -0.017403
     3  C   -0.044394
     4  C   -0.044392
     5  C   -0.017404
     6  C   -0.071640
     7  C    0.047019
     8  C   -0.071638
     9  C    0.086417
    10  C    0.086417
 APT charges:
               1
     1  C   -0.021444
     2  C   -0.128565
     3  C    0.089747
     4  C    0.089736
     5  C   -0.128552
     6  C   -0.010272
     7  C   -0.021445
     8  C   -0.010280
     9  C    0.033702
    10  C    0.033701
    11  H    0.039762
    12  H    0.047972
    13  H   -0.014003
    14  H   -0.014002
    15  H    0.047969
    16  H    0.009405
    17  H    0.039761
    18  H    0.009410
    19  H   -0.044392
    20  H   -0.001909
    21  H   -0.044392
    22  H   -0.001909
 Sum of APT charges =   0.00000
 APT charges with hydrogens summed into heavy atoms:
               1
     1  C    0.018318
     2  C   -0.080593
     3  C    0.075744
     4  C    0.075734
     5  C   -0.080583
     6  C   -0.000867
     7  C    0.018316
     8  C   -0.000870
     9  C   -0.012599
    10  C   -0.012601
 Electronic spatial extent (au):  <R**2>=           1156.4778
 Charge=             -0.0000 electrons
 Dipole moment (field-independent basis, Debye):
    X=             -0.0000    Y=             -0.4581    Z=             -0.0000  Tot=              0.4581
 Quadrupole moment (field-independent basis, Debye-Ang):
   XX=            -62.5738   YY=            -57.4184   ZZ=            -59.8945
   XY=              0.0001   XZ=             -3.5116   YZ=              0.0000
 Traceless Quadrupole moment (field-independent basis, Debye-Ang):
   XX=             -2.6116   YY=              2.5439   ZZ=              0.0677
   XY=              0.0001   XZ=             -3.5116   YZ=              0.0000
 Octapole moment (field-independent basis, Debye-Ang**2):
  XXX=             -0.0002  YYY=              3.3300  ZZZ=             -0.0001  XYY=              0.0000
  XXY=             -1.0226  XXZ=             -0.0000  XZZ=             -0.0001  YZZ=              0.7044
  YYZ=             -0.0000  XYZ=             -1.2976
 Hexadecapole moment (field-independent basis, Debye-Ang**3):
 XXXX=           -877.0787 YYYY=           -390.8847 ZZZZ=           -343.8935 XXXY=              0.0001
 XXXZ=            -23.6012 YYYX=             -0.0000 YYYZ=              0.0001 ZZZX=            -16.7976
 ZZZY=              0.0000 XXYY=           -205.7031 XXZZ=           -208.4295 YYZZ=           -122.3918
 XXYZ=              0.0003 YYXZ=             -0.1460 ZZXY=              0.0004
 N-N= 5.247790861043D+02 E-N=-1.950060831180D+03  KE= 3.864416409028D+02
  Exact polarizability: 173.767   0.000 116.205   0.063  -0.000 118.618
 Approx polarizability: 298.183   0.001 164.175  13.921  -0.002 203.126
 D2PCM: PCM CHGder 2nd derivatives, FixD1E=F FixD2E=F DoIter=F DoCFld=F I1PDM=0
 Calling FoFJK, ICntrl=    100127 FMM=F ISym2X=0 I1Cent= 0 IOpClX= 0 NMat=1 NMatS=1 NMatT=0.
 Full mass-weighted force constant matrix:
 Low frequencies --- -101.4567    0.0004    0.0005    0.0006   14.5119   34.0457
 Low frequencies ---   35.4585  132.5419  169.6036
 ******    1 imaginary frequencies (negative Signs) ****** 
 Diagonal vibrational polarizability:
       10.1259563       2.6866731       9.7202023
 Harmonic frequencies (cm**-1), IR intensities (KM/Mole), Raman scattering
 activities (A**4/AMU), depolarization ratios for plane and unpolarized
 incident light, reduced masses (AMU), force constants (mDyne/A),
 and normal coordinates:
                      1                      2                      3
                      A                      A                      A
 Frequencies --   -101.3240               132.5416               169.5921
 Red. masses --      5.0744                 5.4462                 3.3270
 Frc consts  --      0.0307                 0.0564                 0.0564
 IR Inten    --      2.6911                 0.6244                 0.2254
  Atom  AN      X      Y      Z        X      Y      Z        X      Y      Z
     1   6     0.02   0.06  -0.01    -0.20  -0.01   0.03    -0.01   0.04  -0.15
     2   6    -0.21   0.09  -0.11    -0.16  -0.03  -0.01    -0.06   0.14  -0.05
     3   6    -0.09   0.07  -0.08    -0.13  -0.06  -0.09    -0.09   0.05   0.05
     4   6    -0.09  -0.07  -0.08     0.13  -0.06   0.09     0.09   0.05  -0.05
     5   6    -0.21  -0.09  -0.11     0.16  -0.03   0.01     0.06   0.14   0.05
     6   6     0.25   0.03   0.16    -0.31   0.05  -0.07    -0.01  -0.11  -0.09
     7   6     0.02  -0.06  -0.01     0.20  -0.01  -0.03     0.01   0.04   0.15
     8   6     0.25  -0.03   0.16     0.31   0.05   0.07     0.01  -0.11   0.09
     9   6     0.01  -0.03   0.03     0.08   0.04   0.03     0.01  -0.11  -0.11
    10   6     0.01   0.03   0.03    -0.08   0.04  -0.03    -0.01  -0.11   0.11
    11   1     0.04   0.06   0.01    -0.23  -0.02   0.05     0.01   0.08  -0.28
    12   1    -0.13   0.05  -0.08    -0.03  -0.12   0.06    -0.03   0.24  -0.04
    13   1    -0.09   0.10  -0.04     0.04  -0.03  -0.02    -0.14   0.10   0.15
    14   1    -0.09  -0.10  -0.04    -0.04  -0.03   0.02     0.14   0.10  -0.15
    15   1    -0.13  -0.05  -0.08     0.03  -0.12  -0.06     0.03   0.24   0.04
    16   1     0.40   0.00   0.24    -0.41   0.11  -0.09     0.02  -0.21  -0.15
    17   1     0.04  -0.06   0.01     0.23  -0.02  -0.05    -0.01   0.08   0.28
    18   1     0.40  -0.00   0.24     0.41   0.11   0.09    -0.02  -0.21   0.15
    19   1    -0.07   0.15   0.04     0.04   0.18  -0.02     0.04  -0.04  -0.22
    20   1     0.02  -0.15  -0.03    -0.01  -0.01   0.01    -0.05  -0.24  -0.16
    21   1    -0.07  -0.15   0.04    -0.04   0.18   0.02    -0.04  -0.04   0.22
    22   1     0.02   0.15  -0.03     0.01  -0.01  -0.01     0.05  -0.24   0.16
                      4                      5                      6
                      A                      A                      A
 Frequencies --    269.0428               281.9278               377.5246
 Red. masses --      4.1709                 3.0581                 3.7073
 Frc consts  --      0.1779                 0.1432                 0.3113
 IR Inten    --      0.0874                 0.0801                 0.0002
  Atom  AN      X      Y      Z        X      Y      Z        X      Y      Z
     1   6    -0.17   0.04  -0.12     0.15   0.05   0.06     0.11  -0.00   0.09
     2   6     0.06  -0.07   0.02     0.05   0.09   0.04     0.12   0.01   0.15
     3   6     0.22  -0.04   0.16    -0.05   0.08   0.03     0.02   0.03   0.16
     4   6    -0.22  -0.04  -0.16    -0.05  -0.08   0.03    -0.02   0.03  -0.16
     5   6    -0.06  -0.07  -0.02     0.05  -0.09   0.04    -0.12   0.01  -0.15
     6   6    -0.03   0.03  -0.02    -0.02   0.06  -0.02    -0.15  -0.02  -0.02
     7   6     0.17   0.04   0.12     0.15  -0.05   0.06    -0.11  -0.00  -0.09
     8   6     0.03   0.03   0.02    -0.02  -0.06  -0.02     0.15  -0.02   0.02
     9   6    -0.09   0.03  -0.06    -0.15  -0.06  -0.10     0.09  -0.02  -0.08
    10   6     0.09   0.03   0.06    -0.15   0.06  -0.10    -0.09  -0.02   0.08
    11   1    -0.43   0.08  -0.24     0.33   0.03   0.14     0.23  -0.01   0.12
    12   1    -0.03  -0.01  -0.03     0.15   0.08   0.08     0.28  -0.00   0.23
    13   1     0.07  -0.09   0.04     0.02   0.10   0.08    -0.12   0.01   0.10
    14   1    -0.07  -0.09  -0.04     0.02  -0.10   0.08     0.12   0.01  -0.10
    15   1     0.03  -0.01   0.03     0.15  -0.08   0.08    -0.28  -0.00  -0.23
    16   1    -0.12   0.05  -0.08    -0.01   0.04  -0.04    -0.27  -0.04  -0.13
    17   1     0.43   0.08   0.24     0.33  -0.03   0.14    -0.23  -0.01  -0.12
    18   1     0.12   0.05   0.08    -0.01  -0.04  -0.04     0.27  -0.04   0.13
    19   1    -0.16   0.14  -0.03    -0.11   0.04  -0.27     0.02   0.08  -0.03
    20   1    -0.10  -0.03  -0.09    -0.32  -0.13  -0.11     0.16  -0.11  -0.13
    21   1     0.16   0.14   0.03    -0.11  -0.04  -0.27    -0.02   0.08   0.03
    22   1     0.10  -0.03   0.09    -0.32   0.13  -0.11    -0.16  -0.11   0.13
                      7                      8                      9
                      A                      A                      A
 Frequencies --    433.0737               439.5595               585.8292
 Red. masses --      1.9403                 1.9786                 3.0435
 Frc consts  --      0.2144                 0.2252                 0.6154
 IR Inten    --      0.0950                 1.2853                 1.4071
  Atom  AN      X      Y      Z        X      Y      Z        X      Y      Z
     1   6    -0.06   0.01  -0.01     0.10  -0.01   0.06    -0.13   0.04  -0.05
     2   6    -0.06   0.02   0.02    -0.01   0.02  -0.04     0.16  -0.04   0.10
     3   6     0.02   0.02   0.09    -0.08   0.03  -0.08    -0.13   0.04  -0.08
     4   6    -0.02   0.02  -0.09    -0.08  -0.03  -0.08     0.13   0.04   0.08
     5   6     0.06   0.02  -0.02    -0.01  -0.02  -0.04    -0.16  -0.04  -0.10
     6   6     0.02  -0.03   0.05    -0.07   0.02  -0.06     0.06  -0.01   0.06
     7   6     0.06   0.01   0.01     0.10   0.01   0.06     0.13   0.04   0.05
     8   6    -0.02  -0.03  -0.05    -0.07  -0.02  -0.06    -0.06  -0.01  -0.06
     9   6     0.13  -0.02   0.07     0.04  -0.02   0.08     0.04  -0.02  -0.02
    10   6    -0.13  -0.02  -0.07     0.04   0.02   0.08    -0.04  -0.02   0.02
    11   1    -0.10   0.03  -0.07     0.24  -0.04   0.17    -0.28   0.07  -0.15
    12   1    -0.16   0.08  -0.03    -0.07   0.02  -0.06     0.39  -0.11   0.22
    13   1    -0.06   0.00   0.04    -0.11   0.03  -0.07    -0.09   0.02  -0.11
    14   1     0.06   0.00  -0.04    -0.11  -0.03  -0.07     0.09   0.02   0.11
    15   1     0.16   0.08   0.03    -0.07  -0.02  -0.06    -0.39  -0.11  -0.22
    16   1     0.05  -0.04   0.07    -0.05   0.01  -0.06     0.02  -0.02   0.02
    17   1     0.10   0.03   0.07     0.24   0.04   0.17     0.28   0.07   0.15
    18   1    -0.05  -0.04  -0.07    -0.05  -0.01  -0.06    -0.02  -0.02  -0.02
    19   1     0.06  -0.21   0.37    -0.03  -0.22   0.38     0.14  -0.17  -0.08
    20   1     0.43   0.12   0.10     0.32   0.15   0.13     0.02   0.08   0.03
    21   1    -0.06  -0.21  -0.37    -0.03   0.22   0.38    -0.14  -0.17   0.08
    22   1    -0.43   0.12  -0.10     0.32  -0.15   0.13    -0.02   0.08  -0.03
                     10                     11                     12
                      A                      A                      A
 Frequencies --    607.0217               706.6636               711.7161
 Red. masses --      1.9929                 1.2366                 1.4664
 Frc consts  --      0.4327                 0.3638                 0.4377
 IR Inten    --      2.3098                 2.6893                46.3210
  Atom  AN      X      Y      Z        X      Y      Z        X      Y      Z
     1   6    -0.06   0.05  -0.06    -0.03  -0.01  -0.04     0.01  -0.02   0.01
     2   6     0.11  -0.03   0.03    -0.02  -0.01  -0.02    -0.12   0.02  -0.02
     3   6    -0.10   0.01  -0.05     0.01  -0.02   0.03     0.04   0.01   0.01
     4   6    -0.10  -0.01  -0.05    -0.01  -0.02  -0.03     0.04  -0.01   0.01
     5   6     0.11   0.03   0.03     0.02  -0.01   0.02    -0.12  -0.02  -0.02
     6   6     0.05   0.02   0.02    -0.01   0.03  -0.04    -0.02  -0.03   0.01
     7   6    -0.06  -0.05  -0.06     0.03  -0.01   0.04     0.01   0.02   0.01
     8   6     0.05  -0.02   0.02     0.01   0.03   0.04    -0.02   0.03   0.01
     9   6    -0.04  -0.02   0.04     0.05   0.03  -0.01     0.05   0.02  -0.02
    10   6    -0.04   0.02   0.04    -0.05   0.03   0.01     0.05  -0.02  -0.02
    11   1    -0.11   0.05  -0.07     0.18  -0.06   0.12     0.13  -0.02   0.02
    12   1     0.53  -0.15   0.24     0.25  -0.07   0.11     0.48  -0.24   0.27
    13   1    -0.08   0.00  -0.08     0.02  -0.02   0.02     0.04   0.04   0.07
    14   1    -0.08  -0.00  -0.08    -0.02  -0.02  -0.02     0.04  -0.04   0.07
    15   1     0.53   0.15   0.24    -0.25  -0.07  -0.11     0.48   0.24   0.27
    16   1     0.04  -0.01  -0.01     0.50  -0.05   0.29    -0.27   0.03  -0.13
    17   1    -0.11  -0.05  -0.07    -0.18  -0.06  -0.12     0.13   0.02   0.02
    18   1     0.04   0.01  -0.01    -0.50  -0.05  -0.29    -0.27  -0.03  -0.13
    19   1    -0.12   0.02   0.18     0.03   0.13  -0.05     0.07  -0.00  -0.05
    20   1     0.10  -0.02   0.02     0.00  -0.06  -0.05     0.01   0.03  -0.01
    21   1    -0.12  -0.02   0.18    -0.03   0.13   0.05     0.07   0.00  -0.05
    22   1     0.10   0.02   0.02    -0.00  -0.06   0.05     0.01  -0.03  -0.01
                     13                     14                     15
                      A                      A                      A
 Frequencies --    712.2736               738.5425               794.2225
 Red. masses --      1.2458                 1.5094                 3.3415
 Frc consts  --      0.3724                 0.4851                 1.2419
 IR Inten    --     62.3456                 0.2079                 0.0212
  Atom  AN      X      Y      Z        X      Y      Z        X      Y      Z
     1   6    -0.03  -0.03  -0.03    -0.01   0.03   0.02    -0.05  -0.07   0.01
     2   6    -0.03  -0.01  -0.00    -0.08   0.06  -0.03    -0.00   0.04   0.17
     3   6     0.03  -0.01   0.04     0.04  -0.00   0.00     0.03   0.15  -0.03
     4   6     0.03   0.01   0.04    -0.04  -0.00  -0.00    -0.03   0.15   0.03
     5   6    -0.03   0.01  -0.00     0.08   0.06   0.03     0.00   0.04  -0.17
     6   6    -0.03   0.01  -0.05     0.00  -0.03   0.04    -0.08  -0.07  -0.03
     7   6    -0.03   0.03  -0.03     0.01   0.03  -0.02     0.05  -0.07  -0.01
     8   6    -0.03  -0.01  -0.05    -0.00  -0.03  -0.04     0.08  -0.07   0.03
     9   6    -0.02  -0.02  -0.00    -0.08  -0.04   0.02    -0.14  -0.05   0.10
    10   6    -0.02   0.02  -0.00     0.08  -0.04  -0.02     0.14  -0.05  -0.10
    11   1     0.21  -0.08   0.13     0.07   0.04  -0.00     0.10  -0.03  -0.11
    12   1     0.16  -0.03   0.09     0.51  -0.20   0.27    -0.22   0.09   0.06
    13   1     0.05  -0.02   0.01     0.09   0.05   0.12    -0.09   0.10  -0.15
    14   1     0.05   0.02   0.01    -0.09   0.05  -0.12     0.09   0.10   0.15
    15   1     0.16   0.03   0.09    -0.51  -0.20  -0.27     0.22   0.09  -0.06
    16   1     0.51  -0.03   0.31    -0.14   0.01  -0.04     0.28   0.07   0.35
    17   1     0.21   0.08   0.13    -0.07   0.04   0.00    -0.10  -0.03   0.11
    18   1     0.51   0.03   0.31     0.14   0.01   0.04    -0.28   0.07  -0.35
    19   1     0.02  -0.14   0.02    -0.10  -0.11   0.14    -0.17   0.00   0.12
    20   1     0.01   0.09   0.05     0.02   0.07   0.07    -0.08  -0.13   0.06
    21   1     0.02   0.14   0.02     0.10  -0.11  -0.14     0.17   0.00  -0.12
    22   1     0.01  -0.09   0.05    -0.02   0.07  -0.07     0.08  -0.13  -0.06
                     16                     17                     18
                      A                      A                      A
 Frequencies --    812.0713               829.0714               840.4023
 Red. masses --      4.0334                 3.8032                 4.8021
 Frc consts  --      1.5671                 1.5402                 1.9983
 IR Inten    --     13.8814                 2.0452                36.2031
  Atom  AN      X      Y      Z        X      Y      Z        X      Y      Z
     1   6     0.07  -0.15  -0.07    -0.01   0.20   0.07    -0.04  -0.15  -0.03
     2   6    -0.07  -0.08   0.00     0.13   0.05  -0.07    -0.04   0.05   0.26
     3   6    -0.04  -0.08   0.12     0.04  -0.10  -0.07    -0.07   0.18  -0.04
     4   6    -0.04   0.08   0.12    -0.04  -0.10   0.07    -0.07  -0.18  -0.04
     5   6    -0.07   0.08   0.00    -0.13   0.05   0.07    -0.04  -0.05   0.26
     6   6     0.14   0.11  -0.10    -0.14  -0.03   0.09     0.04  -0.06  -0.05
     7   6     0.07   0.15  -0.07     0.01   0.20  -0.07    -0.04   0.15  -0.03
     8   6     0.14  -0.11  -0.10     0.14  -0.03  -0.09     0.04   0.06  -0.05
     9   6    -0.07  -0.14   0.06    -0.01  -0.12  -0.00     0.11  -0.04  -0.12
    10   6    -0.07   0.14   0.06     0.01  -0.12   0.00     0.11   0.04  -0.12
    11   1    -0.20  -0.16  -0.05     0.06   0.20   0.08     0.05  -0.08  -0.28
    12   1     0.03   0.12   0.03    -0.21   0.05  -0.22    -0.17   0.21   0.19
    13   1     0.08  -0.16  -0.03     0.09  -0.00   0.14     0.01   0.11  -0.16
    14   1     0.08   0.16  -0.03    -0.09  -0.00  -0.14     0.01  -0.11  -0.16
    15   1     0.03  -0.12   0.03     0.21   0.05   0.22    -0.17  -0.21   0.19
    16   1    -0.23   0.16  -0.33     0.27  -0.20   0.25    -0.02   0.19   0.11
    17   1    -0.20   0.16  -0.05    -0.06   0.20  -0.08     0.05   0.08  -0.28
    18   1    -0.23  -0.16  -0.33    -0.27  -0.20  -0.25    -0.02  -0.19   0.11
    19   1    -0.07  -0.15   0.08    -0.09  -0.05   0.10     0.01   0.02   0.06
    20   1    -0.08  -0.02   0.13    -0.04   0.03   0.08     0.18   0.05  -0.08
    21   1    -0.07   0.15   0.08     0.09  -0.05  -0.10     0.01  -0.02   0.06
    22   1    -0.08   0.02   0.13     0.04   0.03  -0.08     0.18  -0.05  -0.08
                     19                     20                     21
                      A                      A                      A
 Frequencies --    898.3352               928.9360               934.7295
 Red. masses --      2.3689                 2.0816                 1.8928
 Frc consts  --      1.1264                 1.0583                 0.9744
 IR Inten    --     10.2505                15.6208                 0.0875
  Atom  AN      X      Y      Z        X      Y      Z        X      Y      Z
     1   6    -0.01   0.03   0.02    -0.02   0.00  -0.01    -0.00   0.00   0.01
     2   6    -0.02  -0.05  -0.07     0.02   0.00  -0.01     0.02  -0.05  -0.07
     3   6     0.12   0.15  -0.05    -0.10  -0.04   0.05    -0.04   0.05   0.03
     4   6    -0.12   0.15   0.05    -0.10   0.04   0.05     0.04   0.05  -0.03
     5   6     0.02  -0.05   0.07     0.02  -0.00  -0.01    -0.02  -0.05   0.07
     6   6    -0.01  -0.04   0.04    -0.00   0.10  -0.04    -0.00   0.11  -0.05
     7   6     0.01   0.03  -0.02    -0.02  -0.00  -0.01     0.00   0.00  -0.01
     8   6     0.01  -0.04  -0.04    -0.00  -0.10  -0.04     0.00   0.11   0.05
     9   6     0.09  -0.04   0.01     0.12   0.07  -0.01    -0.06  -0.09  -0.02
    10   6    -0.09  -0.04  -0.01     0.12  -0.07  -0.01     0.06  -0.09   0.02
    11   1     0.01   0.02   0.02     0.03  -0.06   0.21    -0.12  -0.07   0.23
    12   1    -0.03  -0.42  -0.06     0.06   0.15  -0.00     0.01  -0.11  -0.08
    13   1    -0.05   0.11  -0.17    -0.39   0.02   0.17    -0.42   0.10   0.10
    14   1     0.05   0.11   0.17    -0.39  -0.02   0.17     0.42   0.10  -0.10
    15   1     0.03  -0.42   0.06     0.06  -0.15  -0.00    -0.01  -0.11   0.08
    16   1    -0.09  -0.07  -0.04     0.00   0.26   0.08     0.02   0.22   0.06
    17   1    -0.01   0.02  -0.02     0.03   0.06   0.21     0.12  -0.07  -0.23
    18   1     0.09  -0.07   0.04     0.00  -0.26   0.08    -0.02   0.22  -0.06
    19   1     0.21   0.02  -0.29     0.19   0.15  -0.23    -0.09  -0.19   0.14
    20   1    -0.08  -0.25  -0.08    -0.09  -0.03  -0.04     0.20  -0.11  -0.06
    21   1    -0.21   0.02   0.29     0.19  -0.15  -0.23     0.09  -0.19  -0.14
    22   1     0.08  -0.25   0.08    -0.09   0.03  -0.04    -0.20  -0.11   0.06
                     22                     23                     24
                      A                      A                      A
 Frequencies --    950.8322               955.1298               969.0795
 Red. masses --      1.3600                 1.3685                 1.6352
 Frc consts  --      0.7244                 0.7355                 0.9048
 IR Inten    --      1.4130                13.1962                23.3590
  Atom  AN      X      Y      Z        X      Y      Z        X      Y      Z
     1   6    -0.10   0.02  -0.04    -0.10   0.01  -0.04     0.01   0.02  -0.04
     2   6     0.02   0.00   0.02     0.03  -0.01   0.00    -0.01   0.01   0.02
     3   6    -0.00  -0.01   0.01     0.02   0.01   0.00    -0.04  -0.07  -0.00
     4   6     0.00  -0.01  -0.01     0.02  -0.01   0.00    -0.04   0.07  -0.00
     5   6    -0.02   0.00  -0.02     0.03   0.01   0.00    -0.01  -0.01   0.02
     6   6     0.04   0.00   0.02     0.06  -0.00   0.02    -0.03  -0.07   0.03
     7   6     0.10   0.02   0.04    -0.10  -0.01  -0.04     0.01  -0.02  -0.04
     8   6    -0.04   0.00  -0.02     0.06   0.00   0.02    -0.03   0.07   0.03
     9   6    -0.00  -0.02   0.03    -0.02   0.01  -0.01     0.04  -0.09   0.04
    10   6     0.00  -0.02  -0.03    -0.02  -0.01  -0.01     0.04   0.09   0.04
    11   1     0.52  -0.10   0.33     0.48  -0.12   0.35     0.26   0.02  -0.07
    12   1    -0.09   0.09  -0.05    -0.12   0.05  -0.07     0.03   0.15   0.04
    13   1     0.02   0.02   0.07     0.09   0.02   0.03    -0.13  -0.14  -0.14
    14   1    -0.02   0.02  -0.07     0.09  -0.02   0.03    -0.13   0.14  -0.14
    15   1     0.09   0.09   0.05    -0.12  -0.05  -0.07     0.03  -0.15   0.04
    16   1    -0.21   0.07  -0.10    -0.22   0.04  -0.15     0.01  -0.25  -0.08
    17   1    -0.52  -0.10  -0.33     0.48   0.12   0.35     0.26  -0.02  -0.07
    18   1     0.21   0.07   0.10    -0.22  -0.04  -0.15     0.01   0.25  -0.08
    19   1     0.02   0.00  -0.04    -0.07   0.03   0.08     0.16  -0.10  -0.20
    20   1    -0.06  -0.06   0.01     0.03   0.05   0.01     0.01  -0.40  -0.11
    21   1    -0.02   0.00   0.04    -0.07  -0.03   0.08     0.16   0.10  -0.20
    22   1     0.06  -0.06  -0.01     0.03  -0.05   0.01     0.01   0.40  -0.11
                     25                     26                     27
                      A                      A                      A
 Frequencies --    980.6858               987.7075              1021.8391
 Red. masses --      1.9861                 1.8068                 1.5142
 Frc consts  --      1.1254                 1.0385                 0.9315
 IR Inten    --     23.8690                 0.1567                 0.0349
  Atom  AN      X      Y      Z        X      Y      Z        X      Y      Z
     1   6    -0.01  -0.03  -0.01    -0.01  -0.01  -0.03     0.01   0.01  -0.01
     2   6     0.00  -0.03   0.00     0.01  -0.04  -0.02     0.01  -0.03  -0.04
     3   6     0.03   0.11  -0.07     0.01   0.05  -0.04    -0.05   0.01   0.07
     4   6     0.03  -0.11  -0.07    -0.01   0.05   0.04     0.05   0.01  -0.07
     5   6     0.00   0.03   0.00    -0.01  -0.04   0.02    -0.01  -0.03   0.04
     6   6    -0.02   0.01  -0.06    -0.04  -0.06  -0.01    -0.02  -0.05   0.05
     7   6    -0.01   0.03  -0.01     0.01  -0.01   0.03    -0.01   0.01   0.01
     8   6    -0.02  -0.01  -0.06     0.04  -0.06   0.01     0.02  -0.05  -0.05
     9   6     0.03  -0.01   0.14    -0.05   0.08  -0.12    -0.01   0.05   0.07
    10   6     0.03   0.01   0.14     0.05   0.08   0.12     0.01   0.05  -0.07
    11   1     0.01  -0.07   0.11     0.22  -0.05   0.08     0.04   0.03  -0.09
    12   1    -0.04  -0.16  -0.01    -0.05  -0.12  -0.05     0.01  -0.12  -0.04
    13   1     0.04   0.10  -0.10    -0.05   0.01  -0.13    -0.45   0.06   0.13
    14   1     0.04  -0.10  -0.10     0.05   0.01   0.13     0.45   0.06  -0.13
    15   1    -0.04   0.16  -0.01     0.05  -0.12   0.05    -0.01  -0.12   0.04
    16   1     0.06  -0.08  -0.07     0.05  -0.28  -0.12    -0.01  -0.12   0.00
    17   1     0.01   0.07   0.11    -0.22  -0.05  -0.08    -0.04   0.03   0.09
    18   1     0.06   0.08  -0.07    -0.05  -0.28   0.12     0.01  -0.12  -0.00
    19   1     0.05   0.31  -0.19    -0.12  -0.13   0.23    -0.07   0.26   0.00
    20   1    -0.45  -0.12   0.15     0.26   0.36  -0.02    -0.27   0.18   0.17
    21   1     0.05  -0.31  -0.19     0.12  -0.13  -0.23     0.07   0.26  -0.00
    22   1    -0.45   0.12   0.15    -0.26   0.36   0.02     0.27   0.18  -0.17
                     28                     29                     30
                      A                      A                      A
 Frequencies --   1039.0187              1083.9577              1091.0840
 Red. masses --      1.7160                 1.1920                 1.3466
 Frc consts  --      1.0915                 0.8252                 0.9445
 IR Inten    --     29.6595                 8.0850                 0.0007
  Atom  AN      X      Y      Z        X      Y      Z        X      Y      Z
     1   6    -0.02  -0.07   0.01     0.02   0.04  -0.03    -0.03  -0.06   0.03
     2   6     0.05  -0.03  -0.08    -0.01  -0.06   0.03     0.04   0.03  -0.05
     3   6    -0.04   0.07   0.04    -0.02   0.01   0.02     0.02   0.05   0.00
     4   6    -0.04  -0.07   0.04    -0.02  -0.01   0.02    -0.02   0.05  -0.00
     5   6     0.05   0.03  -0.08    -0.01   0.06   0.03    -0.04   0.03   0.05
     6   6    -0.01  -0.06   0.02     0.02   0.01  -0.00    -0.01  -0.04   0.01
     7   6    -0.02   0.07   0.01     0.02  -0.04  -0.03     0.03  -0.06  -0.03
     8   6    -0.01   0.06   0.02     0.02  -0.01  -0.00     0.01  -0.04  -0.01
     9   6     0.02  -0.06  -0.02    -0.00  -0.00  -0.00     0.00   0.01   0.01
    10   6     0.02   0.06  -0.02    -0.00   0.00  -0.00    -0.00   0.01  -0.01
    11   1    -0.14  -0.10   0.10     0.22   0.12  -0.27    -0.32  -0.17   0.38
    12   1     0.01  -0.12  -0.10    -0.21  -0.46  -0.04     0.14   0.33  -0.03
    13   1     0.04   0.28   0.47    -0.16   0.06   0.11     0.08   0.11   0.12
    14   1     0.04  -0.28   0.47    -0.16  -0.06   0.11    -0.08   0.11  -0.12
    15   1     0.01   0.12  -0.10    -0.21   0.46  -0.04    -0.14   0.33   0.03
    16   1     0.02  -0.12   0.00    -0.01   0.05   0.00     0.03  -0.16  -0.06
    17   1    -0.14   0.10   0.10     0.22  -0.12  -0.27     0.32  -0.17  -0.38
    18   1     0.02   0.12   0.00    -0.01  -0.05   0.00    -0.03  -0.16   0.06
    19   1     0.01  -0.07   0.01     0.10  -0.18  -0.07     0.04  -0.01  -0.05
    20   1     0.13  -0.22  -0.11    -0.03   0.08   0.04    -0.07   0.06   0.05
    21   1     0.01   0.07   0.01     0.10   0.18  -0.07    -0.04  -0.01   0.05
    22   1     0.13   0.22  -0.11    -0.03  -0.08   0.04     0.07   0.06  -0.05
                     31                     32                     33
                      A                      A                      A
 Frequencies --   1106.3280              1109.7454              1120.3232
 Red. masses --      1.2746                 1.2896                 1.2296
 Frc consts  --      0.9192                 0.9357                 0.9093
 IR Inten    --      6.7563                 6.8613                 0.0347
  Atom  AN      X      Y      Z        X      Y      Z        X      Y      Z
     1   6     0.00  -0.06  -0.02    -0.01   0.05   0.04    -0.01   0.03   0.02
     2   6     0.04  -0.01  -0.04    -0.03  -0.00   0.05    -0.00  -0.02   0.05
     3   6    -0.02   0.03   0.01     0.00   0.01   0.01    -0.03   0.01   0.01
     4   6     0.02   0.03  -0.01     0.00  -0.01   0.01     0.03   0.01  -0.01
     5   6    -0.04  -0.01   0.04    -0.03   0.00   0.05     0.00  -0.02  -0.05
     6   6    -0.03  -0.02   0.03     0.04   0.01  -0.05     0.04   0.01  -0.05
     7   6    -0.00  -0.06   0.02    -0.01  -0.05   0.04     0.01   0.03  -0.02
     8   6     0.03  -0.02  -0.03     0.04  -0.01  -0.05    -0.04   0.01   0.05
     9   6     0.00   0.03  -0.02     0.01   0.01  -0.04    -0.01   0.00   0.02
    10   6    -0.00   0.03   0.02     0.01  -0.01  -0.04     0.01   0.00  -0.02
    11   1     0.09  -0.01  -0.21    -0.21  -0.02   0.29    -0.09   0.01   0.09
    12   1    -0.04  -0.07  -0.08    -0.04  -0.09   0.05    -0.16  -0.32   0.00
    13   1     0.24   0.20   0.37    -0.14  -0.00  -0.03     0.22   0.18   0.37
    14   1    -0.24   0.20  -0.37    -0.14   0.00  -0.03    -0.22   0.18  -0.37
    15   1     0.04  -0.07   0.08    -0.04   0.09   0.05     0.16  -0.32  -0.00
    16   1    -0.09   0.30   0.25     0.15  -0.41  -0.32     0.13  -0.24  -0.19
    17   1    -0.09  -0.01   0.21    -0.21   0.02   0.29     0.09   0.01  -0.09
    18   1     0.09   0.30  -0.25     0.15   0.41  -0.32    -0.13  -0.24   0.19
    19   1     0.07  -0.09  -0.04     0.08  -0.13  -0.05    -0.06   0.07   0.06
    20   1     0.04   0.08  -0.01     0.06   0.07  -0.02    -0.01  -0.06  -0.01
    21   1    -0.07  -0.09   0.04     0.08   0.13  -0.05     0.06   0.07  -0.06
    22   1    -0.04   0.08   0.01     0.06  -0.07  -0.02     0.01  -0.06   0.01
                     34                     35                     36
                      A                      A                      A
 Frequencies --   1142.0236              1159.9749              1235.5931
 Red. masses --      1.2394                 1.1496                 1.3248
 Frc consts  --      0.9524                 0.9114                 1.1916
 IR Inten    --      8.8053                 1.7584                 0.4245
  Atom  AN      X      Y      Z        X      Y      Z        X      Y      Z
     1   6    -0.01  -0.03  -0.00    -0.01  -0.01   0.00     0.00   0.03   0.01
     2   6     0.03   0.01  -0.03     0.02   0.00  -0.02    -0.00  -0.03   0.01
     3   6     0.01   0.04  -0.03    -0.01   0.01  -0.04    -0.10  -0.03  -0.02
     4   6     0.01  -0.04  -0.03     0.01   0.01   0.04    -0.10   0.03  -0.02
     5   6     0.03  -0.01  -0.03    -0.02   0.00   0.02    -0.00   0.03   0.01
     6   6     0.02  -0.03   0.06     0.03  -0.02   0.04     0.00  -0.00   0.00
     7   6    -0.01   0.03  -0.00     0.01  -0.01  -0.00     0.00  -0.03   0.01
     8   6     0.02   0.03   0.06    -0.03  -0.02  -0.04     0.00   0.00   0.00
     9   6    -0.03  -0.00   0.01     0.01   0.00  -0.02     0.04   0.01  -0.00
    10   6    -0.03   0.00   0.01    -0.01   0.00   0.02     0.04  -0.01  -0.00
    11   1    -0.07  -0.05   0.03    -0.03  -0.01  -0.04     0.01   0.05  -0.01
    12   1     0.08   0.19  -0.02     0.05   0.06  -0.02    -0.01   0.06   0.01
    13   1    -0.20   0.03  -0.07     0.03   0.03  -0.00     0.61  -0.01   0.09
    14   1    -0.20  -0.03  -0.07    -0.03   0.03   0.00     0.61   0.01   0.09
    15   1     0.08  -0.19  -0.02    -0.05   0.06   0.02    -0.01  -0.06   0.01
    16   1    -0.09   0.05   0.04    -0.08   0.03   0.02     0.02  -0.05  -0.02
    17   1    -0.07   0.05   0.03     0.03  -0.01   0.04     0.01  -0.05  -0.01
    18   1    -0.09  -0.05   0.04     0.08   0.03  -0.02     0.02   0.05  -0.02
    19   1     0.24  -0.42  -0.19    -0.29   0.44   0.24     0.16  -0.10  -0.15
    20   1    -0.16   0.25   0.15     0.19  -0.28  -0.18    -0.09   0.16   0.08
    21   1     0.24   0.42  -0.19     0.29   0.44  -0.24     0.16   0.10  -0.15
    22   1    -0.16  -0.25   0.15    -0.19  -0.28   0.18    -0.09  -0.16   0.08
                     37                     38                     39
                      A                      A                      A
 Frequencies --   1272.1509              1273.2679              1297.8445
 Red. masses --      2.1137                 1.9887                 1.3333
 Frc consts  --      2.0155                 1.8996                 1.3232
 IR Inten    --      2.6065                 7.0597                 0.7635
  Atom  AN      X      Y      Z        X      Y      Z        X      Y      Z
     1   6    -0.00  -0.05  -0.02     0.00  -0.04  -0.02    -0.02  -0.02   0.03
     2   6    -0.01   0.04   0.05    -0.01   0.02   0.05    -0.01  -0.04   0.02
     3   6     0.08  -0.00  -0.08     0.03  -0.01  -0.08     0.03  -0.04  -0.06
     4   6    -0.08  -0.00   0.08     0.03   0.01  -0.08     0.03   0.04  -0.06
     5   6     0.01   0.04  -0.05    -0.01  -0.02   0.05    -0.01   0.04   0.02
     6   6     0.02   0.06  -0.02     0.02   0.07  -0.02    -0.00   0.05   0.02
     7   6     0.00  -0.05   0.02     0.00   0.04  -0.02    -0.02   0.02   0.03
     8   6    -0.02   0.06   0.02     0.02  -0.07  -0.02    -0.00  -0.05   0.02
     9   6     0.09  -0.11  -0.08    -0.08   0.12   0.07     0.01  -0.03  -0.01
    10   6    -0.09  -0.11   0.08    -0.08  -0.12   0.07     0.01   0.03  -0.01
    11   1     0.01  -0.05  -0.03     0.00  -0.04  -0.03     0.15   0.07  -0.26
    12   1    -0.03   0.00   0.05    -0.03   0.05   0.05     0.07   0.28   0.04
    13   1    -0.15   0.12   0.15     0.11   0.14   0.22    -0.12   0.17   0.35
    14   1     0.15   0.12  -0.14     0.11  -0.14   0.22    -0.12  -0.17   0.35
    15   1     0.03   0.00  -0.05    -0.03  -0.05   0.05     0.07  -0.28   0.04
    16   1    -0.01   0.08  -0.03     0.01   0.07  -0.03     0.07  -0.21  -0.14
    17   1    -0.01  -0.05   0.03     0.00   0.04  -0.03     0.15  -0.07  -0.26
    18   1     0.01   0.08   0.03     0.01  -0.07  -0.03     0.07   0.21  -0.14
    19   1    -0.15   0.25   0.12     0.17  -0.25  -0.15    -0.09   0.11   0.06
    20   1    -0.27   0.40   0.21     0.26  -0.37  -0.21    -0.10   0.16   0.09
    21   1     0.15   0.25  -0.12     0.17   0.25  -0.15    -0.09  -0.11   0.06
    22   1     0.27   0.40  -0.21     0.25   0.37  -0.21    -0.10  -0.16   0.09
                     40                     41                     42
                      A                      A                      A
 Frequencies --   1300.9201              1356.0443              1367.1649
 Red. masses --      1.3406                 2.1225                 2.7164
 Frc consts  --      1.3367                 2.2996                 2.9915
 IR Inten    --      0.0845                 3.7492                 8.7127
  Atom  AN      X      Y      Z        X      Y      Z        X      Y      Z
     1   6    -0.02  -0.02   0.03    -0.02  -0.02   0.01    -0.02   0.00   0.02
     2   6    -0.01  -0.04   0.01     0.03   0.13   0.03     0.02   0.14   0.05
     3   6     0.05  -0.02  -0.06     0.06  -0.09  -0.06     0.01  -0.14  -0.10
     4   6    -0.05  -0.02   0.06    -0.06  -0.09   0.06     0.01   0.14  -0.10
     5   6     0.01  -0.04  -0.01    -0.03   0.13  -0.03     0.02  -0.14   0.05
     6   6    -0.01   0.05   0.02     0.03  -0.08  -0.04     0.05  -0.09  -0.07
     7   6     0.02  -0.02  -0.03     0.02  -0.02  -0.01    -0.02  -0.00   0.02
     8   6     0.01   0.05  -0.02    -0.03  -0.08   0.04     0.05   0.09  -0.07
     9   6    -0.01   0.03   0.02     0.01   0.09  -0.01    -0.01  -0.09   0.02
    10   6     0.01   0.03  -0.02    -0.01   0.09   0.01    -0.01   0.09   0.02
    11   1     0.15   0.07  -0.26    -0.12  -0.07   0.17    -0.15  -0.05   0.20
    12   1     0.08   0.28   0.04    -0.09  -0.30   0.00    -0.09  -0.29   0.04
    13   1    -0.24   0.16   0.27    -0.42   0.01   0.13    -0.08   0.07   0.34
    14   1     0.24   0.16  -0.27     0.42   0.01  -0.13    -0.08  -0.07   0.34
    15   1    -0.08   0.28  -0.04     0.09  -0.30  -0.00    -0.09   0.29   0.04
    16   1     0.06  -0.23  -0.15    -0.05   0.19   0.12    -0.06   0.27   0.14
    17   1    -0.15   0.07   0.26     0.12  -0.07  -0.17    -0.15   0.05   0.20
    18   1    -0.06  -0.23   0.15     0.05   0.19  -0.12    -0.06  -0.27   0.14
    19   1     0.09  -0.11  -0.07     0.09  -0.10  -0.03    -0.03   0.03  -0.04
    20   1     0.11  -0.15  -0.09     0.11  -0.12  -0.12    -0.12   0.11   0.13
    21   1    -0.09  -0.11   0.07    -0.09  -0.10   0.03    -0.03  -0.03  -0.04
    22   1    -0.11  -0.15   0.09    -0.11  -0.12   0.12    -0.12  -0.11   0.13
                     43                     44                     45
                      A                      A                      A
 Frequencies --   1444.1707              1450.4748              1475.3741
 Red. masses --      2.6897                 2.2865                 1.1588
 Frc consts  --      3.3051                 2.8342                 1.4862
 IR Inten    --      9.5033                 3.7370                 7.4996
  Atom  AN      X      Y      Z        X      Y      Z        X      Y      Z
     1   6     0.10   0.11  -0.13    -0.08  -0.12   0.08     0.01   0.02   0.00
     2   6    -0.07  -0.14   0.07     0.07   0.12  -0.06    -0.01  -0.03   0.00
     3   6     0.03   0.01  -0.04    -0.02  -0.00   0.05     0.01   0.02   0.00
     4   6     0.03  -0.01  -0.04     0.02  -0.00  -0.05     0.01  -0.02   0.00
     5   6    -0.07   0.14   0.07    -0.07   0.12   0.06    -0.01   0.03   0.00
     6   6    -0.04  -0.05   0.02    -0.00   0.08   0.01    -0.00  -0.02  -0.01
     7   6     0.10  -0.11  -0.13     0.08  -0.12  -0.08     0.01  -0.02   0.00
     8   6    -0.04   0.05   0.02     0.00   0.08  -0.01    -0.00   0.02  -0.01
     9   6     0.01  -0.01  -0.01     0.01  -0.00  -0.01    -0.04  -0.04   0.03
    10   6     0.01   0.01  -0.01    -0.01  -0.00   0.01    -0.04   0.04   0.03
    11   1    -0.19  -0.03   0.36     0.15  -0.03  -0.28    -0.00   0.02   0.02
    12   1    -0.02   0.24   0.09    -0.02  -0.25  -0.10     0.01   0.07   0.01
    13   1    -0.06   0.14   0.22     0.06  -0.13  -0.20    -0.04   0.02   0.01
    14   1    -0.06  -0.14   0.22    -0.06  -0.13   0.20    -0.04  -0.02   0.01
    15   1    -0.02  -0.24   0.09     0.02  -0.25   0.10     0.01  -0.07   0.01
    16   1    -0.06   0.15   0.18     0.07  -0.22  -0.17    -0.02   0.05   0.03
    17   1    -0.19   0.03   0.36    -0.15  -0.03   0.28    -0.00  -0.02   0.02
    18   1    -0.06  -0.15   0.18    -0.07  -0.22   0.17    -0.02  -0.05   0.03
    19   1    -0.08  -0.05   0.17    -0.04  -0.15   0.20     0.05   0.27  -0.39
    20   1    -0.13  -0.05  -0.01    -0.22  -0.12  -0.03     0.45   0.21   0.07
    21   1    -0.08   0.05   0.17     0.04  -0.15  -0.20     0.05  -0.27  -0.39
    22   1    -0.13   0.05  -0.01     0.22  -0.12   0.03     0.45  -0.21   0.07
                     46                     47                     48
                      A                      A                      A
 Frequencies --   1476.0175              1498.9698              1523.4281
 Red. masses --      1.2122                 3.1761                 3.7471
 Frc consts  --      1.5560                 4.2046                 5.1237
 IR Inten    --      2.5607                 7.7359                 0.8426
  Atom  AN      X      Y      Z        X      Y      Z        X      Y      Z
     1   6     0.01   0.04   0.00    -0.07   0.09   0.16     0.11  -0.05  -0.22
     2   6    -0.02  -0.04   0.01    -0.02  -0.10  -0.03    -0.02   0.05   0.05
     3   6     0.00   0.01  -0.01     0.01   0.03   0.02     0.00  -0.02  -0.03
     4   6    -0.00   0.01   0.01     0.01  -0.03   0.02    -0.00  -0.02   0.03
     5   6     0.02  -0.04  -0.01    -0.02   0.10  -0.03     0.02   0.05  -0.05
     6   6     0.00  -0.03  -0.02     0.09  -0.11  -0.16    -0.09   0.11   0.19
     7   6    -0.01   0.04  -0.00    -0.07  -0.09   0.16    -0.11  -0.05   0.22
     8   6    -0.00  -0.03   0.02     0.09   0.11  -0.16     0.09   0.11  -0.19
     9   6     0.04   0.04  -0.03    -0.02   0.01   0.02    -0.01   0.01   0.02
    10   6    -0.04   0.04   0.03    -0.02  -0.01   0.02     0.01   0.01  -0.02
    11   1    -0.01   0.03   0.03     0.12   0.22  -0.16    -0.17  -0.22   0.24
    12   1     0.03   0.11   0.02     0.13   0.29   0.02    -0.10  -0.20   0.04
    13   1    -0.01   0.04   0.04    -0.06   0.02  -0.02     0.02   0.01   0.03
    14   1     0.01   0.04  -0.04    -0.06  -0.02  -0.02    -0.02   0.01  -0.03
    15   1    -0.03   0.11  -0.02     0.13  -0.29   0.02     0.10  -0.20  -0.04
    16   1    -0.02   0.08   0.05    -0.02   0.31   0.06    -0.01  -0.28  -0.02
    17   1     0.01   0.03  -0.03     0.12  -0.22  -0.16     0.17  -0.22  -0.24
    18   1     0.02   0.08  -0.05    -0.02  -0.31   0.06     0.01  -0.28   0.02
    19   1    -0.06  -0.25   0.39     0.02  -0.16   0.09     0.02  -0.16   0.09
    20   1    -0.44  -0.20  -0.07    -0.07  -0.24  -0.09    -0.08  -0.24  -0.09
    21   1     0.06  -0.26  -0.39     0.02   0.16   0.09    -0.02  -0.16  -0.09
    22   1     0.44  -0.21   0.07    -0.07   0.24  -0.09     0.08  -0.24   0.09
                     49                     50                     51
                      A                      A                      A
 Frequencies --   2984.9573              2985.2266              3078.0028
 Red. masses --      1.0711                 1.0715                 1.0898
 Frc consts  --      5.6231                 5.6261                 6.0835
 IR Inten    --    132.6878                22.7880                14.6191
  Atom  AN      X      Y      Z        X      Y      Z        X      Y      Z
     1   6     0.00   0.00  -0.00     0.00   0.00  -0.00     0.00  -0.00  -0.00
     2   6    -0.00  -0.00   0.00    -0.00  -0.00   0.00    -0.00  -0.00   0.00
     3   6    -0.00  -0.00   0.00    -0.00  -0.00   0.00     0.00  -0.00   0.00
     4   6    -0.00   0.00   0.00     0.00  -0.00  -0.00    -0.00  -0.00  -0.00
     5   6    -0.00   0.00   0.00     0.00  -0.00  -0.00     0.00  -0.00  -0.00
     6   6    -0.00   0.00  -0.00    -0.00   0.00  -0.00     0.00   0.00  -0.00
     7   6     0.00  -0.00  -0.00    -0.00   0.00   0.00    -0.00  -0.00   0.00
     8   6    -0.00  -0.00  -0.00     0.00   0.00   0.00    -0.00   0.00   0.00
     9   6    -0.05  -0.02  -0.01     0.05   0.02   0.01    -0.01   0.02  -0.06
    10   6    -0.05   0.02  -0.01    -0.05   0.02  -0.01     0.01   0.02   0.05
    11   1    -0.00  -0.00  -0.00    -0.00  -0.00  -0.00    -0.00   0.00  -0.00
    12   1    -0.00   0.00   0.00    -0.00   0.00  -0.00     0.00  -0.00  -0.01
    13   1     0.00   0.03  -0.01     0.00   0.03  -0.01     0.00   0.05  -0.03
    14   1     0.00  -0.03  -0.01    -0.00   0.03   0.01    -0.00   0.05   0.03
    15   1    -0.00  -0.00   0.00     0.00   0.00   0.00    -0.00  -0.00   0.01
    16   1    -0.00  -0.00   0.01    -0.00  -0.00   0.01    -0.01  -0.01   0.02
    17   1    -0.00   0.00  -0.00     0.00  -0.00   0.00     0.00   0.00   0.00
    18   1    -0.00   0.00   0.01     0.00  -0.00  -0.01     0.01  -0.01  -0.02
    19   1     0.59   0.24   0.29    -0.58  -0.24  -0.29     0.09   0.04   0.03
    20   1    -0.03   0.05  -0.12     0.03  -0.04   0.11     0.08  -0.30   0.62
    21   1     0.58  -0.23   0.29     0.59  -0.24   0.29    -0.09   0.04  -0.03
    22   1    -0.03  -0.05  -0.12    -0.03  -0.04  -0.11    -0.08  -0.30  -0.62
                     52                     53                     54
                      A                      A                      A
 Frequencies --   3079.2827              3108.3165              3117.9723
 Red. masses --      1.0903                 1.0888                 1.0883
 Frc consts  --      6.0912                 6.1979                 6.2337
 IR Inten    --     43.5017                11.2692                57.9506
  Atom  AN      X      Y      Z        X      Y      Z        X      Y      Z
     1   6    -0.00   0.00  -0.00    -0.00   0.00  -0.00     0.00   0.00   0.00
     2   6    -0.00  -0.00   0.00    -0.00  -0.00   0.00     0.00   0.00  -0.00
     3   6    -0.00  -0.00   0.00     0.00   0.05  -0.03    -0.00  -0.05   0.03
     4   6    -0.00   0.00   0.00     0.00  -0.05  -0.03     0.00  -0.05  -0.03
     5   6    -0.00   0.00   0.00    -0.00   0.00   0.00    -0.00   0.00   0.00
     6   6    -0.00  -0.00   0.00     0.00   0.00  -0.00    -0.00  -0.00   0.00
     7   6    -0.00  -0.00  -0.00    -0.00  -0.00  -0.00    -0.00   0.00  -0.00
     8   6    -0.00   0.00   0.00     0.00  -0.00  -0.00     0.00  -0.00  -0.00
     9   6    -0.01   0.02  -0.06    -0.00  -0.00  -0.00    -0.00  -0.00   0.00
    10   6    -0.01  -0.02  -0.06    -0.00   0.00  -0.00     0.00  -0.00  -0.00
    11   1     0.00   0.00   0.00     0.00   0.00   0.00    -0.00   0.00  -0.00
    12   1     0.00  -0.00   0.00     0.02   0.00  -0.04    -0.02  -0.00   0.04
    13   1     0.00   0.02  -0.01    -0.03  -0.63   0.31     0.02   0.62  -0.31
    14   1     0.00  -0.02  -0.01    -0.03   0.63   0.31    -0.02   0.62   0.31
    15   1     0.00   0.00   0.00     0.02  -0.00  -0.04     0.02  -0.00  -0.04
    16   1     0.02   0.01  -0.02    -0.00  -0.00   0.01     0.01   0.01  -0.01
    17   1     0.00  -0.00   0.00     0.00  -0.00   0.00     0.00   0.00   0.00
    18   1     0.02  -0.01  -0.02    -0.00   0.00   0.01    -0.01   0.01   0.01
    19   1     0.10   0.05   0.04     0.03   0.01   0.01     0.02   0.01   0.01
    20   1     0.08  -0.30   0.62     0.00  -0.01   0.01    -0.01   0.03  -0.06
    21   1     0.10  -0.05   0.04     0.03  -0.01   0.01    -0.02   0.01  -0.01
    22   1     0.08   0.30   0.62     0.00   0.01   0.01     0.01   0.03   0.06
                     55                     56                     57
                      A                      A                      A
 Frequencies --   3183.4279              3185.1289              3210.6270
 Red. masses --      1.0885                 1.0888                 1.0968
 Frc consts  --      6.4995                 6.5082                 6.6615
 IR Inten    --     16.5531                14.3306                15.6925
  Atom  AN      X      Y      Z        X      Y      Z        X      Y      Z
     1   6     0.00   0.05   0.02    -0.00  -0.05  -0.02    -0.00   0.02   0.01
     2   6     0.00  -0.00  -0.01    -0.00   0.00   0.01     0.00  -0.00  -0.01
     3   6     0.00   0.00  -0.00    -0.00  -0.00   0.00    -0.00   0.00   0.00
     4   6     0.00  -0.00  -0.00     0.00  -0.00  -0.00    -0.00  -0.00   0.00
     5   6     0.00   0.00  -0.01     0.00   0.00  -0.01     0.00   0.00  -0.01
     6   6    -0.01  -0.01   0.01     0.01   0.01  -0.01     0.03   0.03  -0.04
     7   6     0.00  -0.05   0.02     0.00  -0.05   0.02    -0.00  -0.02   0.01
     8   6    -0.01   0.01   0.01    -0.01   0.01   0.01     0.03  -0.03  -0.04
     9   6     0.00  -0.00   0.00     0.00  -0.00   0.00     0.00   0.00  -0.00
    10   6     0.00   0.00   0.00    -0.00  -0.00  -0.00     0.00  -0.00  -0.00
    11   1    -0.00  -0.61  -0.19     0.00   0.61   0.19     0.00  -0.23  -0.07
    12   1    -0.05   0.01   0.10     0.04  -0.01  -0.09    -0.06   0.01   0.13
    13   1    -0.00  -0.01   0.00     0.00   0.01  -0.00     0.00  -0.00  -0.00
    14   1    -0.00   0.01   0.00    -0.00   0.01   0.00     0.00   0.00  -0.00
    15   1    -0.05  -0.01   0.10    -0.04  -0.01   0.09    -0.06  -0.01   0.13
    16   1     0.13   0.15  -0.18    -0.14  -0.15   0.19    -0.32  -0.35   0.43
    17   1    -0.00   0.61  -0.19    -0.00   0.61  -0.19     0.00   0.23  -0.07
    18   1     0.13  -0.15  -0.18     0.14  -0.15  -0.19    -0.33   0.35   0.44
    19   1    -0.00   0.00   0.00    -0.00  -0.00  -0.00    -0.00  -0.00  -0.00
    20   1    -0.00   0.00  -0.01    -0.00   0.01  -0.01     0.00  -0.01   0.02
    21   1    -0.00  -0.00   0.00     0.00  -0.00   0.00    -0.00   0.00  -0.00
    22   1    -0.00  -0.00  -0.01     0.00   0.01   0.01     0.00   0.01   0.02
                     58                     59                     60
                      A                      A                      A
 Frequencies --   3210.8405              3233.3187              3234.4144
 Red. masses --      1.0972                 1.0965                 1.0974
[...]
 6844,0.00036778,0.00054299,0.00163006,0.04741636,-0.00053919,0.0056168
 8,-0.00291209,-0.12161889,0.01747995,-0.29691750,-0.00632335,-0.004578
 86,-0.00547792,0.00038618,-0.00013472,-0.00036193,-0.00097128,0.000805
 20,-0.00023481,-0.00223375,-0.00011159,-0.00092542,0.00028117,-0.00034
 006,0.00111576,0.00145335,-0.00082332,-0.00157552,-0.00056776,-0.00039
 375,-0.00027681,0.00015100,0.00094025,-0.00073058,0.00078843,-0.000519
 47,-0.00036856,0.12920035,-0.01922946,0.30815284,0.00332162,0.00003692
 ,0.00130797,-0.00110940,-0.00463168,0.00233487,-0.03845695,0.00194790,
 -0.01402948,-0.00878965,0.01792558,0.01595597,-0.00299910,-0.00409410,
 0.00000806,-0.00326188,0.00091574,-0.00471822,-0.00069260,0.00113859,-
 0.00138631,-0.00059785,0.00105791,0.00147871,0.00208645,0.00053747,0.0
 0070333,0.00037198,-0.02064720,-0.00650104,0.00011943,-0.00023092,0.00
 007043,-0.00101934,0.00015498,0.00080858,0.04766713,0.00019308,-0.0040
 0504,0.00181594,-0.00128053,-0.01680199,-0.01376403,-0.00427752,-0.265
 09003,-0.10882153,-0.00094077,-0.00011426,0.00070310,-0.00033010,0.000
 60103,-0.00012534,0.00051230,-0.00050681,0.00076048,-0.00010169,0.0006
 7386,0.00018750,-0.00022099,-0.00030891,0.00050840,0.00008176,-0.00007
 310,-0.00027009,0.00112450,0.00078577,0.00127936,-0.00125005,-0.000484
 64,-0.00021467,-0.00017706,0.00079461,0.00064233,0.00715722,0.28302105
 ,-0.00144311,0.00320254,-0.00342807,0.00221600,0.02061769,0.01154475,-
 0.01284682,-0.11349064,-0.09986809,0.00425497,-0.01226335,-0.00951619,
 0.00232724,0.00142750,0.00001166,-0.00320610,-0.00110211,-0.00216370,-
 0.00018672,-0.00027389,-0.00046826,0.00001061,0.00080020,-0.00027388,-
 0.00085220,-0.00014367,0.00023802,0.00456339,-0.01484126,-0.00610517,0
 .00100536,0.00056390,0.00029791,0.00062429,-0.00139328,0.00001059,0.00
 530783,0.11722037,0.10763231,-0.00069274,-0.00113884,-0.00138638,-0.00
 299901,0.00409408,0.00000762,-0.00878960,-0.01792398,0.01595794,-0.038
 45690,-0.00194570,-0.01403121,-0.00110926,0.00463195,0.00233436,-0.000
 59798,-0.00105792,0.00147902,0.00332147,-0.00003660,0.00130779,-0.0032
 6195,-0.00091614,-0.00471800,0.00037157,0.02064663,-0.00650340,0.00208
 647,-0.00053740,0.00070340,0.00035661,-0.00019496,-0.00032645,0.000166
 66,-0.00022673,0.00005290,0.00148073,0.00002835,-0.00059432,0.04766786
 ,0.00010164,0.00067385,-0.00018769,0.00033031,0.00060095,0.00012528,0.
 00094109,-0.00011324,-0.00070387,0.00427976,-0.26506588,0.10883883,0.0
 0128110,-0.01680278,0.01376697,0.00022100,-0.00030908,-0.00050838,-0.0
 0019316,-0.00400554,-0.00181587,-0.00051268,-0.00050677,-0.00076069,-0
 .00112404,0.00078744,-0.00128015,-0.00008179,-0.00007309,0.00027015,-0
 .00006308,0.00006153,0.00005049,0.00004487,-0.00002343,-0.00004119,-0.
 00002841,0.00098032,0.00008284,-0.00716046,0.28299547,-0.00018668,0.00
 027380,-0.00046825,0.00232721,-0.00142762,0.00001185,0.00425500,0.0122
 6263,-0.00951771,-0.01284938,0.11350808,-0.09989133,0.00221623,-0.0206
 1481,0.01154531,0.00001062,-0.00080025,-0.00027384,-0.00144312,-0.0032
 0248,-0.00342745,-0.00320597,0.00110177,-0.00216364,0.00456311,0.01484
 049,-0.00610663,-0.00085228,0.00014372,0.00023802,-0.00015404,0.000041
 25,0.00013769,-0.00008860,0.00015227,0.00000530,-0.00059433,-0.0000829
 4,-0.00002305,0.00531066,-0.11723872,0.10765709,-0.00114004,-0.0010104
 6,-0.00320448,0.00243108,0.00233640,0.00127936,-0.00140935,-0.00106439
 ,0.00149061,0.00259118,0.00036207,0.00166533,-0.07341540,0.00189521,-0
 .12036319,-0.00367831,-0.00110992,0.00503173,-0.00492954,-0.00318449,-
 0.01384365,0.00135665,0.00406464,0.00018749,0.00129523,-0.00017136,-0.
 00135499,0.00037783,-0.00048059,-0.00008808,0.00002387,-0.00001618,-0.
 00009084,-0.00039719,0.00017623,0.00006546,0.00016667,-0.00004487,-0.0
 0008860,-0.00101934,0.00017711,0.00062426,0.07912294,-0.00023815,-0.00
 021039,-0.00095924,0.00104070,0.00001092,0.00079538,-0.00064730,-0.000
 66729,-0.00055671,-0.01065099,0.00541546,-0.01843787,0.00440480,-0.055
 16620,-0.02006282,-0.00102028,-0.00049491,0.00148871,0.00532353,0.0082
 1683,0.01910022,0.00268122,-0.00335779,0.00297350,0.00119791,-0.003467
 57,-0.00344206,0.00048203,0.00009061,-0.00046008,0.00003967,-0.0000002
 1,0.00000137,-0.00017623,0.00003103,0.00003336,0.00022677,-0.00002344,
 -0.00015229,-0.00015493,0.00079472,0.00139322,-0.00161717,0.04741997,0
 .00028123,0.00034020,0.00111597,-0.00097137,-0.00080531,-0.00023492,0.
 00038634,0.00013478,-0.00036197,-0.00632223,0.00457785,-0.00547625,-0.
 12161887,-0.01750554,-0.29691533,0.00145367,0.00082337,-0.00157600,-0.
 00053907,-0.00561798,-0.00291296,-0.00223387,0.00011168,-0.00092592,0.
 00015089,-0.00093987,-0.00073015,-0.00056787,0.00039369,-0.00027678,0.
 00000129,-0.00000300,0.00001985,0.00006549,-0.00003336,0.00004184,0.00
 005287,0.00004119,0.00000531,0.00080860,-0.00064240,0.00001053,0.12919
 901,0.01925679,0.30815022,-0.00093965,-0.00644582,-0.00348023,0.002807
 56,0.00024097,-0.00474428,-0.00078213,-0.00037822,-0.00119127,0.000498
 24,0.00009279,0.00040354,-0.00020066,0.00016860,-0.00058927,-0.1053171
 5,-0.08064263,-0.11214874,0.00052646,-0.00055277,0.00050199,-0.0001372
 8,-0.00004312,-0.00055704,0.00018193,0.00055853,0.00003230,0.00269643,
 0.00292587,0.00395623,-0.00257079,0.00073869,0.00168908,0.00031181,-0.
 00113313,-0.00032320,0.00047884,-0.00011374,-0.00077880,-0.00004453,-0
 .00011170,-0.00007279,0.00001022,-0.00014210,0.00020734,0.10285760,0.0
 0716165,0.01023795,0.00851217,0.00065134,-0.00096758,0.00316939,0.0013
 3483,-0.00553050,-0.00033305,0.00041132,-0.00004865,-0.00018789,0.0002
 2168,-0.00016007,-0.00010914,-0.07965778,-0.14199731,-0.10691678,-0.00
 013702,0.00025294,-0.00009537,-0.00023147,-0.00007909,0.00029571,-0.00
 003291,0.00014049,-0.00002428,-0.01417635,-0.00457470,-0.01732181,-0.0
 0008630,0.00022492,-0.00113121,0.00012933,0.00089065,0.00028051,-0.001
 55808,0.00001579,-0.00088713,0.00003694,0.00004717,-0.00005088,-0.0001
 2385,-0.00001658,0.00013574,0.08547451,0.14104856,-0.01050857,-0.01775
 620,-0.00802485,-0.00314818,0.00213607,-0.00224534,0.00060478,0.002085
 15,0.00032566,-0.00007451,-0.00000055,-0.00028603,0.00005206,0.0000808
 0,0.00066834,-0.10761374,-0.10266629,-0.18026261,-0.00031360,0.0001989
 9,-0.00031787,0.00013310,0.00017827,0.00034141,-0.00005902,-0.00032989
 ,0.00000901,0.00241518,0.00313022,0.00245643,0.00200418,0.00012038,-0.
 00034005,-0.00083956,-0.00065576,-0.00018109,-0.00011447,0.00000569,0.
 00081977,-0.00001878,0.00006679,0.00009572,-0.00011366,0.00001226,0.00
 002920,0.11763451,0.11426595,0.18643094,0.00032867,-0.00013492,0.00035
 090,-0.00027383,-0.00004919,0.00010618,-0.00007861,-0.00126397,-0.0004
 8220,0.00341129,0.00345730,-0.00495680,0.00131830,0.01448851,0.0059525
 8,0.00053478,0.00004218,-0.00067229,-0.04162639,0.00248352,-0.00511047
 ,0.00321283,-0.01274894,-0.00320227,0.00472149,0.00022223,-0.00600211,
 -0.00003859,0.00002875,0.00001743,-0.00014405,-0.00003577,0.00012065,0
 .00002386,-0.00003967,0.00000130,0.00035657,0.00006307,-0.00015403,0.0
 0011941,0.00125015,0.00100523,-0.00176879,-0.00106835,0.00078841,-0.00
 010586,0.00002191,0.00002175,0.03258702,-0.00008507,-0.00020998,-0.000
 14709,-0.00015252,0.00025063,-0.00033321,-0.00041210,-0.00042197,0.000
 31076,0.00160521,-0.00216053,0.00119433,-0.00321637,-0.01154259,-0.010
 07559,-0.00007713,0.00035315,0.00038073,0.00576413,-0.31315620,-0.0802
 4382,0.00181998,-0.00362051,0.00139314,0.00155872,0.00040694,-0.001499
 13,0.00002068,-0.00005519,-0.00006530,0.00003578,0.00015805,-0.0000675
 2,0.00001616,-0.00000021,0.00000301,0.00019493,0.00006152,-0.00004125,
 0.00023093,-0.00048464,-0.00056379,-0.00016321,0.00036773,0.00051940,0
 .00013839,0.00000613,-0.00002814,-0.00627633,0.33015856,-0.00011457,-0
 .00007694,-0.00001834,0.00026695,-0.00010592,-0.00001509,0.00048886,0.
 00093718,0.00000187,-0.00456192,0.00213726,0.00023010,0.00151978,0.013
 02873,0.00984451,-0.00015870,-0.00000109,0.00047491,-0.00726632,-0.078
 20440,-0.08126082,0.00118322,-0.02457571,0.00190720,-0.00395413,-0.001
 67646,-0.00222175,0.00008109,-0.00002448,-0.00008728,0.00012065,0.0000
 6750,-0.00007227,-0.00009084,-0.00000137,0.00001985,-0.00032647,-0.000
 05049,0.00013769,0.00007041,0.00021473,0.00029792,0.00139616,-0.000543
 04,-0.00036854,0.00000674,-0.00003177,-0.00001789,0.00969931,0.0892684
 7,0.07166835,0.00052638,0.00055274,0.00050187,-0.00020055,-0.00016869,
 -0.00058908,0.00049829,-0.00009276,0.00040358,-0.00078192,0.00037825,-
 0.00119130,0.00280771,-0.00024154,-0.00474446,-0.00013727,0.00004308,-
 0.00055690,-0.00093993,0.00644586,-0.00348136,-0.10532433,0.08063345,-
 0.11215933,0.00269612,-0.00292521,0.00395578,0.00018199,-0.00055857,0.
 00003229,-0.00010584,-0.00013838,0.00000675,0.00001019,0.00014212,0.00
 020730,-0.00004452,0.00011167,-0.00007279,0.00047872,0.00011366,-0.000
 77881,0.00031168,0.00113316,-0.00032334,0.00004278,0.00002361,-0.00002
 758,-0.00257081,-0.00073862,0.00168926,0.10286515,0.00013699,0.0002529
 3,0.00009532,-0.00022164,-0.00016009,0.00010924,-0.00041126,-0.0000486
 3,0.00018786,-0.00133467,-0.00553061,0.00033360,-0.00065164,-0.0009681
 9,-0.00316960,0.00023151,-0.00007912,-0.00029568,-0.00716308,0.0102388
 6,-0.00851404,0.07964946,-0.14197252,0.10690855,0.01417688,-0.00457299
 ,0.01732248,0.00003291,0.00014049,0.00002426,-0.00002191,0.00000613,0.
 00003176,0.00012381,-0.00001659,-0.00013571,-0.00003694,0.00004717,0.0
 0005088,0.00155809,0.00001591,0.00088715,-0.00012943,0.00089072,-0.000
 28062,-0.00002361,0.00003479,0.00000897,0.00008643,0.00022501,0.001131
 20,-0.08546524,0.14102158,-0.00031357,-0.00019901,-0.00031783,0.000052
 01,-0.00008066,0.00066824,-0.00007452,0.00000055,-0.00028610,0.0006048
 9,-0.00208463,0.00032584,-0.00314823,-0.00213615,-0.00224456,0.0001330
 8,-0.00017824,0.00034138,-0.01050829,0.01775392,-0.00802539,-0.1076248
 9,0.10265819,-0.18027977,0.00241393,-0.00312950,0.00245509,-0.00005906
 ,0.00032994,0.00000901,0.00002175,0.00002813,-0.00001790,-0.00011364,-
 0.00001227,0.00002919,-0.00001878,-0.00006677,0.00009572,-0.00011459,-
 0.00000561,0.00081969,-0.00083959,0.00065555,-0.00018107,-0.00002758,-
 0.00000897,0.00002308,0.00200426,-0.00012036,-0.00034025,0.11764669,-0
 .11425682,0.18644947,-0.00051074,0.00008506,-0.00028853,-0.00029010,0.
 00152901,-0.00121898,-0.00326339,-0.00144876,-0.00038623,-0.01933970,-
 0.00779584,0.00801990,0.00001768,0.00171655,-0.00001732,-0.00065813,0.
 00007247,-0.00014836,0.00090718,0.00044024,0.00087700,0.00336928,-0.00
 188587,-0.00114730,-0.21914581,-0.06962163,0.08342691,-0.00057823,-0.0
 0090070,0.00050504,-0.00001075,-0.00009501,0.00000443,0.00020213,-0.00
 001573,0.00000112,0.00034055,0.00007492,-0.00015233,0.00089972,0.00064
 679,0.00015148,-0.00000370,-0.00008620,-0.00019240,0.00010228,-0.00004
 003,-0.00010607,-0.00020892,-0.00015079,0.00004420,-0.00042800,-0.0005
 4466,-0.00003075,0.24229027,-0.00019233,0.00026424,-0.00027123,-0.0005
 9220,-0.00028893,0.00039845,0.00114179,0.00017671,0.00128424,0.0075102
 9,0.00213481,-0.00262489,-0.00057338,0.00034056,0.00048465,0.00008963,
 -0.00041921,-0.00047769,0.00193918,-0.00247469,0.00311513,-0.02686955,
 -0.01774812,0.00754099,-0.07534157,-0.06763386,0.03202341,0.00047971,0
 .00007389,-0.00015806,0.00002473,0.00000509,0.00001912,0.00014109,-0.0
 0006678,0.00007493,-0.00017128,0.00015294,0.00020885,-0.00015151,0.000
 30515,-0.00031558,-0.00002264,0.00002869,0.00001198,-0.00014621,0.0000
 6372,0.00008663,0.00131945,0.00019585,-0.00088390,0.00072141,-0.000247
 50,-0.00000338,0.07918164,0.07985841,-0.00066777,-0.00086775,-0.001740
 61,0.00115970,0.00207678,-0.00031472,-0.00209113,-0.00077467,0.0002690
 5,-0.01542396,-0.00701973,0.00477480,0.00162934,-0.00116387,0.00156452
 ,-0.00127582,-0.00034236,0.00166450,-0.00279093,0.00071612,-0.00247347
 ,0.00146329,0.00408223,0.00050850,0.08484743,0.02917892,-0.08347770,0.
 00014571,-0.00028544,-0.00008712,0.00005837,-0.00000504,-0.00007535,-0
 .00041629,0.00010242,0.00043074,0.00002068,0.00017331,0.00007939,0.000
 63833,0.00016017,0.00092835,0.00004670,0.00006040,-0.00019906,-0.00007
 095,-0.00000078,0.00006655,0.00030651,0.00005692,-0.00023306,-0.000171
 43,0.00041442,0.00020967,-0.09155187,-0.03586936,0.08966085,0.00032978
 ,0.00002027,0.00039248,-0.00055995,-0.00070762,0.00003671,0.00040599,-
 0.00056245,-0.00192394,0.00145941,-0.01222924,-0.01818307,-0.00370103,
 0.00211148,-0.00396879,0.00046026,0.00025762,-0.00019459,0.00183598,-0
 .00008413,0.00057857,-0.00209915,-0.00247579,0.00089964,-0.05037093,0.
 01892364,0.03299532,-0.00005296,0.00033378,0.00009095,0.00000802,0.000
 04587,0.00003163,-0.00026586,-0.00038697,0.00004897,-0.00020240,0.0003
 3168,-0.00004953,-0.00011603,0.00029447,-0.00003594,0.00013805,-0.0011
 3078,-0.00067616,0.00007949,0.00000575,-0.00001647,0.00020436,-0.00016
 194,-0.00012974,-0.00006760,-0.00002628,0.00011945,-0.00364737,0.01133
 971,0.02415152,0.05617413,-0.00046608,-0.00013400,-0.00059461,0.000241
 34,0.00006775,-0.00035011,-0.00016804,0.00045530,0.00042961,-0.0017187
 2,0.00324923,0.00721812,0.00240122,-0.00085225,0.00066718,-0.00020143,
 -0.00035389,0.00034656,0.00070584,-0.00592876,-0.00046226,0.00229019,-
 0.00956458,-0.02914005,0.01616455,-0.09389411,-0.09886857,0.00004294,-
 0.00007850,0.00007808,0.00002655,-0.00000977,-0.00001224,-0.00032463,-
 0.00017124,0.00043454,-0.00009604,0.00004453,0.00009091,-0.00004904,-0
 .00007546,-0.00000757,-0.00005659,0.00037582,-0.00000928,-0.00005220,0
 .00001599,0.00005709,-0.00179509,-0.00052705,-0.00060263,-0.00016834,0
 .00064292,0.00099979,-0.00102728,0.00499784,0.00950278,-0.01580517,0.1
 0161269,0.00002876,-0.00024565,-0.00048302,0.00054135,0.00078164,0.000
 98600,0.00165899,-0.00028567,-0.00038167,0.00380486,-0.00794657,-0.013
 40435,-0.00203017,0.00007149,-0.00193512,0.00039662,-0.00032975,0.0005
 5829,0.00012790,0.00109990,-0.00115042,-0.00065421,0.00194619,0.004995
 09,0.02950186,-0.10019854,-0.25544976,0.00028373,0.00062645,-0.0000862
 7,0.00006310,-0.00000075,-0.00005744,-0.00013944,0.00009611,0.00045385
 ,-0.00056545,0.00045058,0.00051737,-0.00043314,0.00023220,-0.00047245,
 -0.00044323,-0.00095823,-0.00009855,-0.00020916,0.00006285,0.00013882,
 0.00008418,0.00005264,0.00018568,-0.00006700,-0.00079116,0.00006108,0.
 00238982,-0.00484693,-0.01138455,-0.03426059,0.11020653,0.27696569,0.0
 0090732,-0.00044004,0.00087720,0.00001770,-0.00171662,-0.00001717,-0.0
 1933963,0.00779591,0.00801891,-0.00326345,0.00144871,-0.00038633,-0.00
 029015,-0.00152910,-0.00121885,0.00336826,0.00188634,-0.00114716,-0.00
 051073,-0.00008514,-0.00028844,-0.00065807,-0.00007252,-0.00014842,-0.
 00057826,0.00090075,0.00050500,-0.21915193,0.06962500,0.08342074,-0.00
 020889,0.00015078,0.00004416,-0.00000370,0.00008618,-0.00019242,0.0008
 9970,-0.00064675,0.00015153,0.00034057,-0.00007493,-0.00015234,0.00020
 215,0.00001574,0.00000112,-0.00042798,0.00054464,-0.00003081,-0.000010
 76,0.00009501,0.00000442,0.00010230,0.00004002,-0.00010609,-0.00001737
 ,0.00013651,-0.00002021,-0.00002686,-0.00000237,-0.00015956,0.24229703
 ,-0.00193920,-0.00247500,-0.00311517,0.00057347,0.00034067,-0.00048448
 ,-0.00751241,0.00213569,0.00262532,-0.00114206,0.00017661,-0.00128432,
 0.00059235,-0.00028927,-0.00039844,0.02687016,-0.01774818,-0.00753906,
 0.00019232,0.00026437,0.00027103,-0.00008970,-0.00041918,0.00047786,-0
 .00047973,0.00007395,0.00015808,0.07534500,-0.06763488,-0.03202155,-0.
 00131939,0.00019590,0.00088376,0.00002265,0.00002868,-0.00001201,0.000
 15161,0.00030511,0.00031563,0.00017128,0.00015291,-0.00020887,-0.00014
 113,-0.00006681,-0.00007488,-0.00072142,-0.00024753,0.00000340,-0.0000
 2473,0.00000508,-0.00001912,0.00014618,0.00006372,-0.00008662,-0.00013
 652,0.00021703,-0.00018864,-0.00003552,0.00006416,-0.00001404,-0.07918
 541,0.07985987,-0.00279069,-0.00071618,-0.00247312,0.00162902,0.001164
 09,0.00156452,-0.01542357,0.00701956,0.00477384,-0.00209107,0.00077469
 ,0.00026905,0.00115964,-0.00207680,-0.00031450,0.00146108,-0.00408066,
 0.00050944,-0.00066776,0.00086755,-0.00174063,-0.00127569,0.00034246,0
 .00166434,0.00014571,0.00028544,-0.00008713,0.08484066,-0.02917702,-0.
 08347086,0.00030664,-0.00005696,-0.00023312,0.00004674,-0.00006044,-0.
 00019907,0.00063835,-0.00016012,0.00092831,0.00002067,-0.00017333,0.00
 007944,-0.00041629,-0.00010238,0.00043075,-0.00017135,-0.00041437,0.00
 020970,0.00005837,0.00000503,-0.00007535,-0.00007097,0.00000078,0.0000
 6657,-0.00002021,0.00018861,-0.00013925,0.00001277,0.00000680,-0.00003
 204,-0.09154485,0.03586674,0.08965290,0.00183603,0.00008443,0.00057853
 ,-0.00370082,-0.00211192,-0.00396852,0.00145919,0.01222754,-0.01818378
 ,0.00040590,0.00056226,-0.00192402,-0.00055998,0.00070764,0.00003662,-
 0.00209919,0.00247607,0.00089843,0.00032975,-0.00002024,0.00039245,0.0
 0046023,-0.00025761,-0.00019454,-0.00005295,-0.00033377,0.00009099,-0.
 05037065,-0.01892020,0.03299615,0.00020430,0.00016194,-0.00012977,0.00
 013805,0.00113069,-0.00067628,-0.00011598,-0.00029447,-0.00003585,-0.0
 0020245,-0.00033169,-0.00004952,-0.00026587,0.00038697,0.00004892,-0.0
 0006762,0.00002627,0.00011948,0.00000803,-0.00004587,0.00003164,0.0000
 7948,-0.00000575,-0.00001647,-0.00002686,0.00003552,0.00001277,0.00001
 467,0.00005839,0.00008079,-0.00364723,-0.01133781,0.02415281,0.0561739
 7,-0.00070557,-0.00592888,0.00046278,-0.00240148,-0.00085244,-0.000667
 45,0.00171911,0.00324973,-0.00722022,0.00016816,0.00045527,-0.00042972
 ,-0.00024137,0.00006762,0.00035026,-0.00229021,-0.00956197,0.02914127,
 0.00046614,-0.00013390,0.00059453,0.00020147,-0.00035391,-0.00034648,-
 0.00004289,-0.00007856,-0.00007808,-0.01616138,-0.09387709,0.09885462,
 0.00179505,-0.00052693,0.00060280,0.00005654,0.00037595,0.00000921,0.0
 0004902,-0.00007547,0.00000756,0.00009596,0.00004449,-0.00009087,0.000
 32462,-0.00017131,-0.00043445,0.00016833,0.00064291,-0.00099983,-0.000
 02655,-0.00000977,0.00001224,0.00005217,0.00001598,-0.00005707,0.00000
 235,0.00006416,-0.00000681,-0.00005838,0.00006337,-0.00000930,0.001027
 29,0.00499708,-0.00950349,0.01580162,0.10159366,0.00012803,-0.00109943
 ,-0.00115036,-0.00203008,-0.00007165,-0.00193510,0.00380474,0.00794534
 ,-0.01340457,0.00165895,0.00028566,-0.00038166,0.00054140,-0.00078159,
 0.00098605,-0.00065395,-0.00194491,0.00499254,0.00002874,0.00024563,-0
 .00048309,0.00039659,0.00032982,0.00055826,0.00028373,-0.00062645,-0.0
 0008621,0.02950228,0.10018458,-0.25546758,0.00008399,-0.00005257,0.000
 18566,-0.00044323,0.00095819,-0.00009866,-0.00043309,-0.00023227,-0.00
 047238,-0.00056544,-0.00045056,0.00051743,-0.00013951,-0.00009602,0.00
 045385,-0.00006705,0.00079110,0.00006110,0.00006310,0.00000074,-0.0000
 5744,-0.00020916,-0.00006284,0.00013884,-0.00015956,0.00001403,-0.0000
 3204,0.00008080,0.00000931,0.00007378,0.00238957,0.00484539,-0.0113837
 9,-0.03426085,-0.11019148,0.27698538\\-0.00029421,-0.00043595,-0.00088
 015,-0.00245060,0.00104513,0.00080868,-0.00480370,-0.00005823,0.003702
 00,0.00480381,-0.00005821,-0.00370143,0.00245105,0.00104483,-0.0008088
 6,-0.00219325,-0.00025951,0.00074523,0.00029408,-0.00043587,0.00087987
 ,0.00219307,-0.00025897,-0.00074491,0.00121946,-0.00026000,-0.00054230
 ,-0.00121975,-0.00025982,0.00054225,0.00018807,-0.00007570,-0.00016399
 ,0.00001477,-0.00004434,-0.00002468,-0.00005125,0.00013059,0.00009284,
 0.00005123,0.00013072,-0.00009298,-0.00001493,-0.00004436,0.00002444,-
 0.00015041,-0.00000163,0.00002621,-0.00018812,-0.00007583,0.00016394,0
 .00015052,-0.00000186,-0.00002599,0.00021190,-0.00000437,0.00016841,-0
 .00009380,-0.00003610,-0.00006063,-0.00021175,-0.00000440,-0.00016849,
 0.00009382,-0.00003611,0.00006056\\\@


 ... IT CAN BE VERY DIFFICULT, IN THESE COMPLEX TIMES,
 TO UNDERSTAND JUST HOW SCIENTISTS DO WHAT THEY DO.

                     DON MOSER IN THE FEBRUARY 1979 SMITHSONIAN
 Job cpu time:       0 days  1 hours  3 minutes 36.0 seconds.
 Elapsed time:       0 days  0 hours  0 minutes 40.8 seconds.
 File lengths (MBytes):  RWF=    183 Int=      0 D2E=      0 Chk=     11 Scr=      1
 Normal termination of Gaussian 16 at Mon Jul 28 00:19:22 2025.
