 Entering Gaussian System, Link 0=g16
 Initial command:
 /home/hongchang/data/software/Gaussian/g16/l1.exe "/home/hongchang/data/software/Gaussian/g16/scratch/Gau-1369267.inp" -scrdir="/home/hongchang/data/software/Gaussian/g16/scratch/"
 Entering Link 1 = /home/hongchang/data/software/Gaussian/g16/l1.exe PID=   1369268.
  
 Copyright (c) 1988,1990,1992,1993,1995,1998,2003,2009,2016,
            Gaussian, Inc.  All Rights Reserved.
  
 This is part of the Gaussian(R) 16 program.  It is based on
 the Gaussian(R) 09 system (copyright 2009, Gaussian, Inc.),
 the Gaussian(R) 03 system (copyright 2003, Gaussian, Inc.),
 the Gaussian(R) 98 system (copyright 1998, Gaussian, Inc.),
 the Gaussian(R) 94 system (copyright 1995, Gaussian, Inc.),
 the Gaussian 92(TM) system (copyright 1992, Gaussian, Inc.),
 the Gaussian 90(TM) system (copyright 1990, Gaussian, Inc.),
 the Gaussian 88(TM) system (copyright 1988, Gaussian, Inc.),
 the Gaussian 86(TM) system (copyright 1986, Carnegie Mellon
 University), and the Gaussian 82(TM) system (copyright 1983,
 Carnegie Mellon University). Gaussian is a federally registered
 trademark of Gaussian, Inc.
  
 This software contains proprietary and confidential information,
 including trade secrets, belonging to Gaussian, Inc.
  
 This software is provided under written license and may be
 used, copied, transmitted, or stored only in accord with that
 written license.
  
 The following legend is applicable only to US Government
 contracts under FAR:
  
                    RESTRICTED RIGHTS LEGEND
  
 Use, reproduction and disclosure by the US Government is
 subject to restrictions as set forth in subparagraphs (a)
 and (c) of the Commercial Computer Software - Restricted
 Rights clause in FAR 52.227-19.
  
 Gaussian, Inc.
 340 Quinnipiac St., Bldg. 40, Wallingford CT 06492
  
  
 ---------------------------------------------------------------
 Warning -- This program may not be used in any manner that
 competes with the business of Gaussian, Inc. or will provide
 assistance to any competitor of Gaussian, Inc.  The licensee
 of this program is prohibited from giving any competitor of
 Gaussian, Inc. access to this program.  By using this program,
 the user acknowledges that Gaussian, Inc. is engaged in the
 business of creating and licensing software in the field of
 computational chemistry and represents and warrants to the
 licensee that it is not a competitor of Gaussian, Inc. and that
 it will not use this program in any manner prohibited above.
 ---------------------------------------------------------------
  

 Cite this work as:
 Gaussian 16, Revision A.03,
 M. J. Frisch, G. W. Trucks, H. B. Schlegel, G. E. Scuseria, 
 M. A. Robb, J. R. Cheeseman, G. Scalmani, V. Barone, 
 G. A. Petersson, H. Nakatsuji, X. Li, M. Caricato, A. V. Marenich, 
 J. Bloino, B. G. Janesko, R. Gomperts, B. Mennucci, H. P. Hratchian, 
 J. V. Ortiz, A. F. Izmaylov, J. L. Sonnenberg, D. Williams-Young, 
 F. Ding, F. Lipparini, F. Egidi, J. Goings, B. Peng, A. Petrone, 
 T. Henderson, D. Ranasinghe, V. G. Zakrzewski, J. Gao, N. Rega, 
 G. Zheng, W. Liang, M. Hada, M. Ehara, K. Toyota, R. Fukuda, 
 J. Hasegawa, M. Ishida, T. Nakajima, Y. Honda, O. Kitao, H. Nakai, 
 T. Vreven, K. Throssell, J. A. Montgomery, Jr., J. E. Peralta, 
 F. Ogliaro, M. J. Bearpark, J. J. Heyd, E. N. Brothers, K. N. Kudin, 
 V. N. Staroverov, T. A. Keith, R. Kobayashi, J. Normand, 
 K. Raghavachari, A. P. Rendell, J. C. Burant, S. S. Iyengar, 
 J. Tomasi, M. Cossi, J. M. Millam, M. Klene, C. Adamo, R. Cammi, 
 J. W. Ochterski, R. L. Martin, K. Morokuma, O. Farkas, 
 J. B. Foresman, and D. J. Fox, Gaussian, Inc., Wallingford CT, 2016.
 
 ******************************************
 Gaussian 16:  ES64L-G16RevA.03 25-Dec-2016
                28-Jul-2025 
 ******************************************
 %nprocshared=96
 Will use up to   96 processors via shared memory.
 %mem=600GB
 %chk=01_02_path1_8.chk
 -----------------------------------------------------------
 # freq b3lyp/6-311g(d,p) em=gd3bj scrf(solvent=Cis-Decalin)
 -----------------------------------------------------------
 1/10=4,30=1,38=1/1,3;
 2/12=2,17=6,18=5,40=1/2;
 3/5=4,6=6,7=101,11=2,25=1,30=1,70=2201,71=2,72=99,74=-5,124=41,140=1/1,2,3;
 4//1;
 5/5=2,38=5,53=99,98=1/2;
 8/6=4,10=90,11=11/1;
 11/6=1,8=1,9=11,15=111,16=1/1,2,10;
 10/6=1/2;
 6/7=2,8=2,9=2,10=2,28=1/1;
 7/8=1,10=1,25=1/1,2,3,16;
 1/10=4,30=1/3;
 99//99;
 -------------
 01_02_path1_8
 -------------
 Symbolic Z-matrix:
 Charge =  0 Multiplicity = 1
 C                    -1.36459  -1.16864   0.65176 
 C                    -0.74663  -0.08915   1.37243 
 C                    -0.88757   1.07151   0.63795 
 C                     0.88754   1.07146  -0.63805 
 C                     0.74662  -0.08928  -1.37241 
 C                    -1.9373   -0.69516  -0.48517 
 C                     1.36461  -1.16869  -0.65165 
 C                     1.93733  -0.69509   0.48523 
 C                     1.8909    0.80874   0.4643 
 C                    -1.89091   0.80867  -0.46439 
 H                    -1.31909  -2.20772   0.95096 
 H                    -0.24442  -0.1867    2.32341 
 H                    -0.69646   2.06466   1.02151 
 H                     0.69641   2.06456  -1.02171 
 H                     0.2444   -0.18694  -2.32337 
 H                    -2.45895  -1.27617  -1.23279 
 H                     1.31913  -2.2078   -0.95074 
 H                     2.45901  -1.276     1.2329 
 H                     2.86796   1.18938   0.12667 
 H                     1.67951   1.28374   1.42281 
 H                    -2.86798   1.1893   -0.1268 
 H                    -1.67953   1.28358  -1.42294 
 

 GradGradGradGradGradGradGradGradGradGradGradGradGradGradGradGradGradGrad
 Berny optimization.
 Initialization pass.
 Trust Radius=3.00D-01 FncErr=1.00D-07 GrdErr=1.00D-07 EigMax=2.50D+02 EigMin=1.00D-04
 Number of steps in this run=      2 maximum allowed number of steps=      2.
 GradGradGradGradGradGradGradGradGradGradGradGradGradGradGradGradGradGrad

                          Input orientation:                          
 ---------------------------------------------------------------------
 Center     Atomic      Atomic             Coordinates (Angstroms)
 Number     Number       Type             X           Y           Z
 ---------------------------------------------------------------------
      1          6           0       -1.364590   -1.168637    0.651764
      2          6           0       -0.746630   -0.089148    1.372431
      3          6           0       -0.887566    1.071512    0.637946
      4          6           0        0.887538    1.071455   -0.638046
      5          6           0        0.746615   -0.089282   -1.372412
      6          6           0       -1.937298   -0.695162   -0.485173
      7          6           0        1.364611   -1.168686   -0.651647
      8          6           0        1.937330   -0.695085    0.485231
      9          6           0        1.890903    0.808743    0.464300
     10          6           0       -1.890913    0.808669   -0.464385
     11          1           0       -1.319094   -2.207723    0.950959
     12          1           0       -0.244422   -0.186696    2.323405
     13          1           0       -0.696457    2.064660    1.021514
     14          1           0        0.696410    2.064561   -1.021715
     15          1           0        0.244404   -0.186935   -2.323374
     16          1           0       -2.458953   -1.276165   -1.232792
     17          1           0        1.319134   -2.207803   -0.950738
     18          1           0        2.459010   -1.276002    1.232900
     19          1           0        2.867957    1.189375    0.126669
     20          1           0        1.679510    1.283739    1.422810
     21          1           0       -2.867980    1.189304   -0.126798
     22          1           0       -1.679526    1.283581   -1.422938
 ---------------------------------------------------------------------
                    Distance matrix (angstroms):
                    1          2          3          4          5
     1  C    0.000000
     2  C    1.437544   0.000000
     3  C    2.290417   1.380747   0.000000
     4  C    3.428367   2.838930   2.186127   0.000000
     5  C    3.117608   3.124731   2.838931   1.380747   0.000000
     6  C    1.358234   2.288151   2.341895   3.335267   2.890964
     7  C    3.024470   3.117633   3.428387   2.290418   1.437545
     8  C    3.339859   2.891008   3.335300   2.341896   2.288151
     9  C    3.813582   2.930442   2.796264   1.513580   2.342937
    10  C    2.330782   2.342937   1.513580   2.796248   2.930424
    11  H    1.082260   2.234662   3.322285   4.259950   3.762047
    12  H    2.239055   1.079852   2.199430   3.410934   3.827624
    13  H    3.322247   2.182785   1.081661   2.499927   3.528853
    14  H    4.183518   3.528847   2.499920   1.081661   2.182785
    15  H    3.521938   3.827621   3.410933   2.199431   1.079852
    16  H    2.181913   3.335903   3.388289   4.130865   3.421089
    17  H    3.293972   3.762073   4.259970   3.322286   2.234663
    18  H    3.869000   3.421143   4.130903   3.388291   3.335903
    19  H    4.873438   4.031350   3.791998   2.126206   2.895220
    20  H    3.984370   2.788102   2.692755   2.217975   3.250961
    21  H    2.902796   2.895212   2.126205   3.791989   4.031331
    22  H    3.227529   3.250964   2.217976   2.692744   2.788094
                    6          7          8          9         10
     6  C    0.000000
     7  C    3.339842   0.000000
     8  C    3.994299   1.358233   0.000000
     9  C    4.221179   2.330782   1.504690   0.000000
    10  C    1.504690   3.813586   4.221195   3.894174   0.000000
    11  H    2.175429   3.293967   3.620673   4.431702   3.380650
    12  H    3.318505   3.521963   2.897824   3.001130   3.387249
    13  H    3.380297   4.183539   3.852353   2.929547   2.283010
    14  H    3.852320   3.322248   3.380298   2.283010   2.929526
    15  H    2.897775   2.239056   3.318505   3.387250   3.001107
    16  H    1.081028   3.868969   4.755687   5.113532   2.293393
    17  H    3.620661   1.082260   2.175428   3.380651   4.431709
    18  H    4.755699   2.181913   1.081029   2.293393   5.113556
    19  H    5.197721   2.902805   2.132094   1.101594   4.810522
    20  H    4.542879   3.227526   2.204829   1.090436   4.066339
    21  H    2.132091   4.873439   5.197740   4.810529   1.101593
    22  H    2.204830   3.984379   4.542893   4.066338   1.090436
                   11         12         13         14         15
    11  H    0.000000
    12  H    2.668910   0.000000
    13  H    4.318091   2.639670   0.000000
    14  H    5.119190   4.140429   2.472825   0.000000
    15  H    4.153236   4.672420   4.140432   2.639670   0.000000
    16  H    2.633600   4.328698   4.398795   4.600143   3.111901
    17  H    3.252184   4.153263   5.119211   4.318092   2.668910
    18  H    3.901495   3.111966   4.600182   4.398796   4.328699
    19  H    5.454459   4.050447   3.777819   2.607749   3.844473
    20  H    4.626508   2.583557   2.533001   2.748067   4.272740
    21  H    3.885923   3.844467   2.607754   3.777807   4.050421
    22  H    4.237275   4.272742   2.748064   2.532979   2.583546
                   16         17         18         19         20
    16  H    0.000000
    17  H    3.901467   0.000000
    18  H    5.501454   2.633599   0.000000
    19  H    6.025196   3.885933   2.732960   0.000000
    20  H    5.543664   4.237271   2.682529   1.761049   0.000000
    21  H    2.732959   5.454460   6.025225   5.741535   4.805192
    22  H    2.682529   4.626521   5.543683   4.805180   4.402432
                   21         22
    21  H    0.000000
    22  H    1.761048   0.000000
 Stoichiometry    C10H12
 Framework group  C1[X(C10H12)]
 Deg. of freedom    60
 Full point group                 C1      NOp   1
 Largest Abelian subgroup         C1      NOp   1
 Largest concise Abelian subgroup C1      NOp   1
                         Standard orientation:                         
 ---------------------------------------------------------------------
 Center     Atomic      Atomic             Coordinates (Angstroms)
 Number     Number       Type             X           Y           Z
 ---------------------------------------------------------------------
      1          6           0        1.373397    1.180600    0.632965
      2          6           0        0.765369    0.101136    1.362067
      3          6           0        0.896222   -1.059548    0.625757
      4          6           0       -0.896202   -1.059526   -0.625788
      5          6           0       -0.765353    0.101188   -1.362054
      6          6           0        1.930469    0.707087   -0.511699
      7          6           0       -1.373410    1.180617   -0.632921
      8          6           0       -1.930496    0.707054    0.511714
      9          6           0       -1.884365   -0.796775    0.490196
     10          6           0        1.884369   -0.796743   -0.490230
     11          1           0        1.332009    2.219696    0.932722
     12          1           0        0.276241    0.198716    2.319831
     13          1           0        0.710385   -2.052683    1.011939
     14          1           0       -0.710353   -2.052644   -1.012009
     15          1           0       -0.276221    0.198809   -2.319812
     16          1           0        2.441831    1.288064   -1.266416
     17          1           0       -1.332033    2.219724   -0.932641
     18          1           0       -2.441879    1.287996    1.266444
     19          1           0       -2.865955   -1.177415    0.165999
     20          1           0       -1.659857   -1.271741    1.445735
     21          1           0        2.865969   -1.177371   -0.166052
     22          1           0        1.659864   -1.271685   -1.445780
 ---------------------------------------------------------------------
 Rotational constants (GHZ):           2.3695020           1.2961795           1.2382793
 Standard basis: 6-311G(d,p) (5D, 7F)
 There are   262 symmetry adapted cartesian basis functions of A   symmetry.
 There are   252 symmetry adapted basis functions of A   symmetry.
   252 basis functions,   416 primitive gaussians,   262 cartesian basis functions
    36 alpha electrons       36 beta electrons
       nuclear repulsion energy       518.4565590755 Hartrees.
 NAtoms=   22 NActive=   22 NUniq=   22 SFac= 1.00D+00 NAtFMM=   60 NAOKFM=F Big=F
 Integral buffers will be    131072 words long.
 Raffenetti 2 integral format.
 Two-electron integral symmetry is turned on.
 Nuclear repulsion after empirical dispersion term =      518.4101156434 Hartrees.
 Force inversion solution in PCM.
 ------------------------------------------------------------------------------
 Polarizable Continuum Model (PCM)
 =================================
 Model                : PCM.
 Atomic radii         : UFF (Universal Force Field).
 Polarization charges : Total charges.
 Charge compensation  : None.
 Solution method      : Matrix inversion.
 Cavity type          : Scaled VdW (van der Waals Surface) (Alpha=1.100).
 Cavity algorithm     : GePol (No added spheres)
                        Default sphere list used, NSphG=   22.
                        Lebedev-Laikov grids with approx.  5.0 points / Ang**2.
                        Smoothing algorithm: York/Karplus (Gamma=1.0000).
                        Polarization charges: spherical gaussians, with
                                              point-specific exponents (IZeta= 3).
                        Self-potential: point-specific (ISelfS= 7).
                        Self-field    : sphere-specific E.n sum rule (ISelfD= 2).
 1st derivatives      : Analytical E(r).r(x)/FMM algorithm (CHGder, D1EAlg=3).
                        Cavity 1st derivative terms included.
 2nd derivatives      : Analytical E(r).r(xy)/FMM algorithm (CHGder, D2EAlg=3).
                        Cavity 2nd derivative terms included.
 Solvent              : Cis-Decalin, Eps=   2.213900 Eps(inf)=   2.193361
 ------------------------------------------------------------------------------
 One-electron integrals computed using PRISM.
 NBasis=   252 RedAO= T EigKep=  5.45D-04  NBF=   252
 NBsUse=   252 1.00D-06 EigRej= -1.00D+00 NBFU=   252
 ExpMin= 1.03D-01 ExpMax= 4.56D+03 ExpMxC= 6.82D+02 IAcc=3 IRadAn=         5 AccDes= 0.00D+00
 Harris functional with IExCor=  402 and IRadAn=       5 diagonalized for initial guess.
 HarFok:  IExCor=  402 AccDes= 0.00D+00 IRadAn=         5 IDoV= 1 UseB2=F ITyADJ=14
 ICtDFT=  3500011 ScaDFX=  1.000000  1.000000  1.000000  1.000000
 FoFCou: FMM=F IPFlag=           0 FMFlag=      100000 FMFlg1=           0
         NFxFlg=           0 DoJE=T BraDBF=F KetDBF=T FulRan=T
         wScrn=  0.000000 ICntrl=       500 IOpCl=  0 I1Cent=   200000004 NGrid=           0
         NMat0=    1 NMatS0=      1 NMatT0=    0 NMatD0=    1 NMtDS0=    0 NMtDT0=    0
 Petite list used in FoFCou.
 Requested convergence on RMS density matrix=1.00D-08 within 128 cycles.
 Requested convergence on MAX density matrix=1.00D-06.
 Requested convergence on             energy=1.00D-06.
 No special actions if energy rises.
 Inv3:  Mode=1 IEnd=     7207500.
 Iteration    1 A*A^-1 deviation from unit magnitude is 4.44D-15 for   1548.
 Iteration    1 A*A^-1 deviation from orthogonality  is 3.11D-15 for   1542   1001.
 Iteration    1 A^-1*A deviation from unit magnitude is 4.66D-15 for   1548.
 Iteration    1 A^-1*A deviation from orthogonality  is 1.48D-15 for   1218    205.
 Error on total polarization charges =  0.00633
 SCF Done:  E(RB3LYP) =  -388.323996790     A.U. after   12 cycles
            NFock= 12  Conv=0.43D-08     -V/T= 2.0045
 DoSCS=F DFT=T ScalE2(SS,OS)=  1.000000  1.000000
 Range of M.O.s used for correlation:     1   252
 NBasis=   252 NAE=    36 NBE=    36 NFC=     0 NFV=     0
 NROrb=    252 NOA=    36 NOB=    36 NVA=   216 NVB=   216
 Symmetrizing basis deriv contribution to polar:
 IMax=3 JMax=2 DiffMx= 0.00D+00
 G2DrvN: will do    23 centers at a time, making    1 passes.
 Calling FoFCou, ICntrl=  3107 FMM=F I1Cent=   0 AccDes= 0.00D+00.
 NEqPCM:  Using equilibrium solvation (IEInf=0, Eps=   2.2139, EpsInf=   2.1934)
 G2PCM: DoFxE=T DoFxN=T DoGrad=T DoDP/DQ/DG/TGxP=FFFF NFrqRd=   0 IEInf=0 SqF1=F DoCFld=F IF1Alg=4.
 End of G2Drv F.D. properties file   721 does not exist.
 End of G2Drv F.D. properties file   722 does not exist.
 End of G2Drv F.D. properties file   788 does not exist.
          IDoAtm=1111111111111111111111
 NEqPCM:  Using equilibrium solvation (IEInf=0, Eps=   2.2139, EpsInf=   2.1934)
          Differentiating once with respect to electric field.
                with respect to dipole field.
          Differentiating once with respect to nuclear coordinates.
 Keep R1 ints in memory in canonical form, NReq=612588626.
          There are    69 degrees of freedom in the 1st order CPHF.  IDoFFX=6 NUNeed=     3.
     66 vectors produced by pass  0 Test12= 1.13D-14 1.45D-09 XBig12= 1.89D+02 1.14D+01.
 AX will form    66 AO Fock derivatives at one time.
     66 vectors produced by pass  1 Test12= 1.13D-14 1.45D-09 XBig12= 2.56D+01 8.85D-01.
     66 vectors produced by pass  2 Test12= 1.13D-14 1.45D-09 XBig12= 2.60D-01 9.86D-02.
     66 vectors produced by pass  3 Test12= 1.13D-14 1.45D-09 XBig12= 7.62D-04 5.41D-03.
     66 vectors produced by pass  4 Test12= 1.13D-14 1.45D-09 XBig12= 1.48D-06 2.11D-04.
     46 vectors produced by pass  5 Test12= 1.13D-14 1.45D-09 XBig12= 1.62D-09 4.29D-06.
      6 vectors produced by pass  6 Test12= 1.13D-14 1.45D-09 XBig12= 1.54D-12 1.62D-07.
      3 vectors produced by pass  7 Test12= 1.13D-14 1.45D-09 XBig12= 1.54D-15 4.31D-09.
 InvSVY:  IOpt=1 It=  1 EMax= 8.88D-15
 Solved reduced A of dimension   385 with    69 vectors.
 Isotropic polarizability for W=    0.000000      127.05 Bohr**3.
 End of Minotr F.D. properties file   721 does not exist.
 End of Minotr F.D. properties file   722 does not exist.
 End of Minotr F.D. properties file   788 does not exist.

 **********************************************************************

            Population analysis using the SCF density.

 **********************************************************************

 Orbital symmetries:
       Occupied  (A) (A) (A) (A) (A) (A) (A) (A) (A) (A) (A) (A)
                 (A) (A) (A) (A) (A) (A) (A) (A) (A) (A) (A) (A)
                 (A) (A) (A) (A) (A) (A) (A) (A) (A) (A) (A) (A)
       Virtual   (A) (A) (A) (A) (A) (A) (A) (A) (A) (A) (A) (A)
                 (A) (A) (A) (A) (A) (A) (A) (A) (A) (A) (A) (A)
                 (A) (A) (A) (A) (A) (A) (A) (A) (A) (A) (A) (A)
                 (A) (A) (A) (A) (A) (A) (A) (A) (A) (A) (A) (A)
                 (A) (A) (A) (A) (A) (A) (A) (A) (A) (A) (A) (A)
                 (A) (A) (A) (A) (A) (A) (A) (A) (A) (A) (A) (A)
                 (A) (A) (A) (A) (A) (A) (A) (A) (A) (A) (A) (A)
                 (A) (A) (A) (A) (A) (A) (A) (A) (A) (A) (A) (A)
                 (A) (A) (A) (A) (A) (A) (A) (A) (A) (A) (A) (A)
                 (A) (A) (A) (A) (A) (A) (A) (A) (A) (A) (A) (A)
                 (A) (A) (A) (A) (A) (A) (A) (A) (A) (A) (A) (A)
                 (A) (A) (A) (A) (A) (A) (A) (A) (A) (A) (A) (A)
                 (A) (A) (A) (A) (A) (A) (A) (A) (A) (A) (A) (A)
                 (A) (A) (A) (A) (A) (A) (A) (A) (A) (A) (A) (A)
                 (A) (A) (A) (A) (A) (A) (A) (A) (A) (A) (A) (A)
                 (A) (A) (A) (A) (A) (A) (A) (A) (A) (A) (A) (A)
                 (A) (A) (A) (A) (A) (A) (A) (A) (A) (A) (A) (A)
                 (A) (A) (A) (A) (A) (A) (A) (A) (A) (A) (A) (A)
 The electronic state is 1-A.
 Alpha  occ. eigenvalues --  -10.17192 -10.17191 -10.16910 -10.16910 -10.16206
 Alpha  occ. eigenvalues --  -10.16206 -10.16031 -10.16030 -10.15770 -10.15769
 Alpha  occ. eigenvalues --   -0.86548  -0.84194  -0.71344  -0.70590  -0.69219
 Alpha  occ. eigenvalues --   -0.68777  -0.55371  -0.55052  -0.53199  -0.51712
 Alpha  occ. eigenvalues --   -0.51656  -0.50306  -0.44851  -0.42131  -0.39511
 Alpha  occ. eigenvalues --   -0.38458  -0.37450  -0.37114  -0.36152  -0.36151
 Alpha  occ. eigenvalues --   -0.35637  -0.34770  -0.31606  -0.26374  -0.24499
 Alpha  occ. eigenvalues --   -0.19135
 Alpha virt. eigenvalues --   -0.02816   0.01061   0.03778   0.04762   0.07337
 Alpha virt. eigenvalues --    0.07798   0.07894   0.09579   0.09756   0.10581
 Alpha virt. eigenvalues --    0.11137   0.11513   0.12704   0.15140   0.15270
 Alpha virt. eigenvalues --    0.16873   0.18745   0.19748   0.21812   0.23280
 Alpha virt. eigenvalues --    0.27202   0.27489   0.30715   0.31457   0.31885
 Alpha virt. eigenvalues --    0.32509   0.35552   0.38396   0.38494   0.39347
 Alpha virt. eigenvalues --    0.40033   0.40534   0.40903   0.42394   0.43422
 Alpha virt. eigenvalues --    0.44094   0.44796   0.46311   0.46464   0.49114
 Alpha virt. eigenvalues --    0.49904   0.52267   0.55004   0.55676   0.56536
 Alpha virt. eigenvalues --    0.56545   0.58869   0.59201   0.59953   0.60046
 Alpha virt. eigenvalues --    0.60149   0.61946   0.62024   0.63575   0.64061
 Alpha virt. eigenvalues --    0.64451   0.65483   0.66063   0.68816   0.70063
 Alpha virt. eigenvalues --    0.70446   0.71538   0.72156   0.73664   0.76784
 Alpha virt. eigenvalues --    0.80108   0.80210   0.84448   0.85431   0.88094
 Alpha virt. eigenvalues --    0.88263   0.91836   0.93437   0.98312   0.99067
 Alpha virt. eigenvalues --    1.03893   1.03960   1.05403   1.07174   1.12889
 Alpha virt. eigenvalues --    1.13761   1.15486   1.17790   1.21364   1.21851
 Alpha virt. eigenvalues --    1.24364   1.28771   1.34061   1.38878   1.38992
 Alpha virt. eigenvalues --    1.47266   1.47407   1.48219   1.49853   1.51528
 Alpha virt. eigenvalues --    1.52799   1.52949   1.54975   1.56495   1.56684
 Alpha virt. eigenvalues --    1.58578   1.59394   1.60821   1.60939   1.61159
 Alpha virt. eigenvalues --    1.63890   1.64000   1.66176   1.67504   1.69990
 Alpha virt. eigenvalues --    1.70796   1.73032   1.74491   1.77267   1.78145
 Alpha virt. eigenvalues --    1.79306   1.81879   1.82225   1.82528   1.84610
 Alpha virt. eigenvalues --    1.84775   1.86457   1.88894   1.89007   1.89251
 Alpha virt. eigenvalues --    1.91755   1.92141   1.94932   1.97375   1.97648
 Alpha virt. eigenvalues --    1.98841   1.99573   2.03384   2.03890   2.09872
 Alpha virt. eigenvalues --    2.11767   2.13105   2.15666   2.18108   2.19310
 Alpha virt. eigenvalues --    2.23841   2.24456   2.26917   2.32564   2.32611
 Alpha virt. eigenvalues --    2.34321   2.36710   2.36900   2.39143   2.41558
 Alpha virt. eigenvalues --    2.44353   2.45926   2.50193   2.52549   2.53364
 Alpha virt. eigenvalues --    2.54016   2.58855   2.59401   2.60241   2.61159
 Alpha virt. eigenvalues --    2.62711   2.67492   2.69714   2.70590   2.71115
 Alpha virt. eigenvalues --    2.71273   2.74179   2.74358   2.78461   2.78831
 Alpha virt. eigenvalues --    2.81328   2.83674   2.86902   2.92975   2.93363
 Alpha virt. eigenvalues --    2.94541   2.95231   2.98101   2.99650   3.05538
 Alpha virt. eigenvalues --    3.06080   3.10385   3.11656   3.18887   3.19330
 Alpha virt. eigenvalues --    3.22297   3.33857   3.34041   3.42573   3.42673
 Alpha virt. eigenvalues --    3.47734   3.49809   3.55173   3.59563   3.77490
 Alpha virt. eigenvalues --    3.77896   4.02633   4.03958   4.05868   4.08611
 Alpha virt. eigenvalues --    4.09054   4.10821   4.16384   4.18327   4.52759
 Alpha virt. eigenvalues --    4.55081  23.62549  23.74322  23.87456  23.89765
 Alpha virt. eigenvalues --   23.90122  23.95665  24.16058  24.18042  24.21815
 Alpha virt. eigenvalues --   24.21992
          Condensed to atoms (all electrons):
               1          2          3          4          5          6
     1  C    4.875678   0.446753  -0.077526  -0.008068   0.003051   0.578110
     2  C    0.446753   4.994504   0.537102  -0.043956  -0.039943  -0.086259
     3  C   -0.077526   0.537102   5.200304   0.052503  -0.043957  -0.097371
     4  C   -0.008068  -0.043956   0.052503   5.200305   0.537104  -0.011938
     5  C    0.003051  -0.039943  -0.043957   0.537104   4.994507   0.025201
     6  C    0.578110  -0.086259  -0.097371  -0.011938   0.025201   5.071645
     7  C   -0.013376   0.003051  -0.008067  -0.077526   0.446751  -0.009281
     8  C   -0.009280   0.025199  -0.011937  -0.097371  -0.086259  -0.002520
     9  C    0.000587  -0.012116  -0.027118   0.377763  -0.098703   0.000851
    10  C   -0.092776  -0.098702   0.377762  -0.027118  -0.012117   0.376126
    11  H    0.420822  -0.044597   0.006508  -0.000148  -0.000113  -0.044875
    12  H   -0.038288   0.420901  -0.043627  -0.001671   0.000318   0.006099
    13  H    0.007946  -0.037048   0.411857  -0.012437   0.002366   0.005738
    14  H   -0.000053   0.002366  -0.012438   0.411857  -0.037048  -0.000252
    15  H   -0.000243   0.000318  -0.001671  -0.043627   0.420901   0.002697
    16  H   -0.037974   0.008296   0.005264   0.000240  -0.001381   0.417298
    17  H    0.002013  -0.000113  -0.000148   0.006508  -0.044597   0.000837
    18  H    0.000073  -0.001381   0.000240   0.005263   0.008296   0.000022
    19  H   -0.000229   0.002875   0.005143  -0.029160  -0.001471  -0.000194
    20  H    0.000789  -0.003622  -0.003213  -0.041473   0.007365   0.000149
    21  H   -0.002147  -0.001471  -0.029160   0.005144   0.002875  -0.031768
    22  H    0.005274   0.007365  -0.041473  -0.003214  -0.003622  -0.035223
               7          8          9         10         11         12
     1  C   -0.013376  -0.009280   0.000587  -0.092776   0.420822  -0.038288
     2  C    0.003051   0.025199  -0.012116  -0.098702  -0.044597   0.420901
     3  C   -0.008067  -0.011937  -0.027118   0.377762   0.006508  -0.043627
     4  C   -0.077526  -0.097371   0.377763  -0.027118  -0.000148  -0.001671
     5  C    0.446751  -0.086259  -0.098703  -0.012117  -0.000113   0.000318
     6  C   -0.009281  -0.002520   0.000851   0.376126  -0.044875   0.006099
     7  C    4.875676   0.578113  -0.092776   0.000587   0.002013  -0.000243
     8  C    0.578113   5.071640   0.376126   0.000851   0.000837   0.002697
     9  C   -0.092776   0.376126   4.888331   0.002619  -0.000088  -0.000057
    10  C    0.000587   0.000851   0.002619   4.888334   0.008943   0.007662
    11  H    0.002013   0.000837  -0.000088   0.008943   0.572896  -0.002528
    12  H   -0.000243   0.002697  -0.000057   0.007662  -0.002528   0.556681
    13  H   -0.000053  -0.000252  -0.002463  -0.032828  -0.000295  -0.004407
    14  H    0.007946   0.005738  -0.032828  -0.002464   0.000024  -0.000035
    15  H   -0.038287   0.006099   0.007662  -0.000057  -0.000040  -0.000000
    16  H    0.000073   0.000022  -0.000004  -0.038639  -0.005185  -0.000321
    17  H    0.420822  -0.044875   0.008943  -0.000088   0.000139  -0.000040
    18  H   -0.037974   0.417298  -0.038639  -0.000004   0.000018   0.000244
    19  H   -0.002147  -0.031768   0.383199  -0.000198   0.000003   0.000089
    20  H    0.005274  -0.035222   0.407554   0.000456  -0.000015   0.000061
    21  H   -0.000229  -0.000194  -0.000198   0.383199  -0.000500  -0.000443
    22  H    0.000789   0.000149   0.000456   0.407554  -0.000272  -0.000268
              13         14         15         16         17         18
     1  C    0.007946  -0.000053  -0.000243  -0.037974   0.002013   0.000073
     2  C   -0.037048   0.002366   0.000318   0.008296  -0.000113  -0.001381
     3  C    0.411857  -0.012438  -0.001671   0.005264  -0.000148   0.000240
     4  C   -0.012437   0.411857  -0.043627   0.000240   0.006508   0.005263
     5  C    0.002366  -0.037048   0.420901  -0.001381  -0.044597   0.008296
     6  C    0.005738  -0.000252   0.002697   0.417298   0.000837   0.000022
     7  C   -0.000053   0.007946  -0.038287   0.000073   0.420822  -0.037974
     8  C   -0.000252   0.005738   0.006099   0.000022  -0.044875   0.417298
     9  C   -0.002463  -0.032828   0.007662  -0.000004   0.008943  -0.038639
    10  C   -0.032828  -0.002464  -0.000057  -0.038639  -0.000088  -0.000004
    11  H   -0.000295   0.000024  -0.000040  -0.005185   0.000139   0.000018
    12  H   -0.004407  -0.000035  -0.000000  -0.000321  -0.000040   0.000244
    13  H    0.546326  -0.002348  -0.000035  -0.000285   0.000024   0.000018
    14  H   -0.002348   0.546326  -0.004407   0.000018  -0.000295  -0.000285
    15  H   -0.000035  -0.004407   0.556680   0.000245  -0.002528  -0.000321
    16  H   -0.000285   0.000018   0.000245   0.560011   0.000018  -0.000000
    17  H    0.000024  -0.000295  -0.002528   0.000018   0.572896  -0.005185
    18  H    0.000018  -0.000285  -0.000321  -0.000000  -0.005185   0.560012
    19  H   -0.000255  -0.000943  -0.000443   0.000001  -0.000500   0.000311
    20  H    0.001695  -0.000885  -0.000268  -0.000004  -0.000272  -0.001792
    21  H   -0.000943  -0.000255   0.000089   0.000311   0.000003   0.000001
    22  H   -0.000885   0.001695   0.000061  -0.001792  -0.000015  -0.000004
              19         20         21         22
     1  C   -0.000229   0.000789  -0.002147   0.005274
     2  C    0.002875  -0.003622  -0.001471   0.007365
     3  C    0.005143  -0.003213  -0.029160  -0.041473
     4  C   -0.029160  -0.041473   0.005144  -0.003214
     5  C   -0.001471   0.007365   0.002875  -0.003622
     6  C   -0.000194   0.000149  -0.031768  -0.035223
     7  C   -0.002147   0.005274  -0.000229   0.000789
     8  C   -0.031768  -0.035222  -0.000194   0.000149
     9  C    0.383199   0.407554  -0.000198   0.000456
    10  C   -0.000198   0.000456   0.383199   0.407554
    11  H    0.000003  -0.000015  -0.000500  -0.000272
    12  H    0.000089   0.000061  -0.000443  -0.000268
    13  H   -0.000255   0.001695  -0.000943  -0.000885
    14  H   -0.000943  -0.000885  -0.000255   0.001695
    15  H   -0.000443  -0.000268   0.000089   0.000061
    16  H    0.000001  -0.000004   0.000311  -0.001792
    17  H   -0.000500  -0.000272   0.000003  -0.000015
    18  H    0.000311  -0.001792   0.000001  -0.000004
    19  H    0.571723  -0.031680   0.000006  -0.000056
    20  H   -0.031680   0.573025  -0.000056  -0.000016
    21  H    0.000006  -0.000056   0.571723  -0.031680
    22  H   -0.000056  -0.000016  -0.031680   0.573025
 Mulliken charges:
               1
     1  C   -0.061133
     2  C   -0.079521
     3  C   -0.198978
     4  C   -0.198979
     5  C   -0.079524
     6  C   -0.165092
     7  C   -0.061133
     8  C   -0.165090
     9  C   -0.149102
    10  C   -0.149102
    11  H    0.086453
    12  H    0.097176
    13  H    0.118565
    14  H    0.118566
    15  H    0.097177
    16  H    0.093790
    17  H    0.086452
    18  H    0.093790
    19  H    0.135692
    20  H    0.122150
    21  H    0.135693
    22  H    0.122151
 Sum of Mulliken charges =  -0.00000
 Mulliken charges with hydrogens summed into heavy atoms:
               1
     1  C    0.025319
     2  C    0.017654
     3  C   -0.080413
     4  C   -0.080413
     5  C    0.017653
     6  C   -0.071301
     7  C    0.025319
     8  C   -0.071300
     9  C    0.108741
    10  C    0.108742
 APT charges:
               1
     1  C   -0.012507
     2  C   -0.129221
     3  C    0.060354
     4  C    0.060348
     5  C   -0.129216
     6  C   -0.053256
     7  C   -0.012505
     8  C   -0.053261
     9  C    0.004783
    10  C    0.004782
    11  H    0.041562
    12  H    0.048316
    13  H    0.018575
    14  H    0.018574
    15  H    0.048315
    16  H    0.028111
    17  H    0.041562
    18  H    0.028112
    19  H   -0.016701
    20  H    0.009987
    21  H   -0.016701
    22  H    0.009987
 Sum of APT charges =   0.00000
 APT charges with hydrogens summed into heavy atoms:
               1
     1  C    0.029056
     2  C   -0.080905
     3  C    0.078929
     4  C    0.078922
     5  C   -0.080901
     6  C   -0.025145
     7  C    0.029057
     8  C   -0.025149
     9  C   -0.001931
    10  C   -0.001933
 Electronic spatial extent (au):  <R**2>=           1192.6680
 Charge=              0.0000 electrons
 Dipole moment (field-independent basis, Debye):
    X=              0.0000    Y=             -0.6166    Z=             -0.0000  Tot=              0.6166
 Quadrupole moment (field-independent basis, Debye-Ang):
   XX=            -63.0239   YY=            -56.7637   ZZ=            -59.6694
   XY=              0.0000   XZ=             -4.3712   YZ=              0.0000
 Traceless Quadrupole moment (field-independent basis, Debye-Ang):
   XX=             -3.2049   YY=              3.0553   ZZ=              0.1496
   XY=              0.0000   XZ=             -4.3712   YZ=              0.0000
 Octapole moment (field-independent basis, Debye-Ang**2):
  XXX=             -0.0001  YYY=              1.2736  ZZZ=              0.0001  XYY=             -0.0000
  XXY=             -3.2849  XXZ=             -0.0000  XZZ=              0.0000  YZZ=              1.5637
  YYZ=             -0.0001  XYZ=             -0.5996
 Hexadecapole moment (field-independent basis, Debye-Ang**3):
 XXXX=           -919.4045 YYYY=           -389.4810 ZZZZ=           -351.7136 XXXY=              0.0001
 XXXZ=            -28.4458 YYYX=             -0.0001 YYYZ=              0.0001 ZZZX=            -19.1994
 ZZZY=             -0.0000 XXYY=           -214.6753 XXZZ=           -217.5828 YYZZ=           -124.0221
 XXYZ=              0.0003 YYXZ=             -2.3521 ZZXY=              0.0003
 N-N= 5.184101156434D+02 E-N=-1.937557817163D+03  KE= 3.865818133582D+02
  Exact polarizability: 145.173   0.000 120.096  -8.380  -0.000 115.889
 Approx polarizability: 202.374   0.001 179.790 -12.795  -0.001 187.973
 D2PCM: PCM CHGder 2nd derivatives, FixD1E=F FixD2E=F DoIter=F DoCFld=F I1PDM=0
 Calling FoFJK, ICntrl=    100127 FMM=F ISym2X=0 I1Cent= 0 IOpClX= 0 NMat=1 NMatS=1 NMatT=0.
 Full mass-weighted force constant matrix:
 Low frequencies --- -149.8263  -46.2282  -45.5207  -15.5749   -0.0003    0.0005
 Low frequencies ---    0.0005  117.9895  141.2631
 ******    1 imaginary frequencies (negative Signs) ****** 
 Diagonal vibrational polarizability:
        8.2403013       2.2232742       5.4126262
 Harmonic frequencies (cm**-1), IR intensities (KM/Mole), Raman scattering
 activities (A**4/AMU), depolarization ratios for plane and unpolarized
 incident light, reduced masses (AMU), force constants (mDyne/A),
 and normal coordinates:
                      1                      2                      3
                      A                      A                      A
 Frequencies --   -149.8155               117.7266               141.1832
 Red. masses --      8.4752                 3.2972                 4.1686
 Frc consts  --      0.1121                 0.0269                 0.0490
 IR Inten    --      0.0220                 0.0727                 0.4224
  Atom  AN      X      Y      Z        X      Y      Z        X      Y      Z
     1   6    -0.09  -0.03   0.03     0.06   0.03  -0.13     0.05   0.06   0.02
     2   6    -0.17   0.04  -0.06    -0.02   0.14  -0.04    -0.16   0.09  -0.09
     3   6    -0.41   0.01  -0.27    -0.07   0.06   0.07    -0.13   0.09  -0.08
     4   6     0.41   0.01   0.27     0.07   0.06  -0.07    -0.13  -0.09  -0.08
     5   6     0.17   0.04   0.06     0.02   0.14   0.04    -0.16  -0.09  -0.09
     6   6    -0.18  -0.01  -0.06     0.07  -0.12  -0.07     0.21   0.04   0.12
     7   6     0.09  -0.03  -0.03    -0.06   0.03   0.13     0.05  -0.06   0.02
     8   6     0.18  -0.01   0.06    -0.07  -0.12   0.07     0.21  -0.04   0.12
     9   6     0.10  -0.01   0.05     0.01  -0.11  -0.09     0.01  -0.04   0.03
    10   6    -0.10  -0.01  -0.05    -0.01  -0.11   0.09     0.01   0.04   0.03
    11   1    -0.01  -0.04   0.07     0.11   0.07  -0.25     0.11   0.06   0.04
    12   1    -0.03  -0.03   0.02    -0.03   0.27  -0.06    -0.20   0.10  -0.11
    13   1    -0.09   0.02  -0.06    -0.14   0.11   0.17    -0.17   0.10  -0.09
    14   1     0.09   0.02   0.06     0.14   0.11  -0.17    -0.17  -0.10  -0.09
    15   1     0.03  -0.03  -0.02     0.03   0.27   0.06    -0.20  -0.10  -0.11
    16   1    -0.18   0.02  -0.04     0.13  -0.23  -0.11     0.37   0.01   0.20
    17   1     0.01  -0.04  -0.07    -0.11   0.07   0.25     0.11  -0.06   0.04
    18   1     0.18   0.02   0.04    -0.13  -0.23   0.11     0.37  -0.01   0.20
    19   1     0.17   0.04  -0.22     0.04  -0.13  -0.17    -0.07   0.11   0.09
    20   1    -0.13  -0.05   0.08    -0.00  -0.19  -0.13     0.03  -0.14  -0.02
    21   1    -0.17   0.04   0.22    -0.04  -0.13   0.17    -0.07  -0.11   0.09
    22   1     0.13  -0.05  -0.08     0.00  -0.19   0.13     0.03   0.14  -0.02
                      4                      5                      6
                      A                      A                      A
 Frequencies --    188.7912               242.5158               283.8378
 Red. masses --      3.9224                 3.4463                 3.6917
 Frc consts  --      0.0824                 0.1194                 0.1752
 IR Inten    --      0.5152                 0.1171                 0.1457
  Atom  AN      X      Y      Z        X      Y      Z        X      Y      Z
     1   6     0.22  -0.03   0.10     0.16   0.06   0.06    -0.10   0.00  -0.11
     2   6     0.06   0.00  -0.01     0.10   0.08   0.06    -0.08  -0.02  -0.15
     3   6    -0.08   0.03  -0.12    -0.06   0.09   0.01     0.04  -0.03  -0.13
     4   6     0.08   0.03   0.12    -0.06  -0.09   0.01    -0.04  -0.03   0.13
     5   6    -0.06   0.00   0.01     0.10  -0.08   0.06     0.08  -0.02   0.15
     6   6     0.20  -0.00   0.07    -0.04   0.06  -0.04     0.13   0.02  -0.01
     7   6    -0.22  -0.03  -0.10     0.16  -0.06   0.06     0.10   0.00   0.11
     8   6    -0.20  -0.00  -0.07    -0.04  -0.06  -0.04    -0.13   0.02   0.01
     9   6    -0.01   0.00   0.06    -0.16  -0.06  -0.09    -0.18   0.02   0.01
    10   6     0.01   0.00  -0.06    -0.16   0.06  -0.09     0.18   0.02  -0.01
    11   1     0.37  -0.05   0.19     0.34   0.04   0.14    -0.24   0.01  -0.15
    12   1     0.06  -0.02  -0.01     0.21   0.08   0.12    -0.21  -0.03  -0.21
    13   1    -0.07   0.03  -0.12    -0.06   0.10   0.03     0.11  -0.03  -0.11
    14   1     0.07   0.03   0.12    -0.06  -0.10   0.03    -0.11  -0.03   0.11
    15   1    -0.06  -0.02   0.01     0.21  -0.08   0.12     0.21  -0.03   0.21
    16   1     0.31  -0.00   0.14    -0.06   0.04  -0.07     0.20   0.05   0.06
    17   1    -0.37  -0.05  -0.19     0.34  -0.04   0.14     0.24   0.01   0.15
    18   1    -0.31  -0.00  -0.14    -0.06  -0.04  -0.07    -0.20   0.05  -0.06
    19   1     0.06  -0.15   0.03    -0.15   0.01  -0.21    -0.14   0.03  -0.12
    20   1    -0.00   0.11   0.11    -0.28  -0.10  -0.08    -0.31   0.02   0.05
    21   1    -0.06  -0.15  -0.03    -0.15  -0.01  -0.21     0.14   0.03   0.12
    22   1     0.00   0.11  -0.11    -0.28   0.10  -0.08     0.31   0.02  -0.05
                      7                      8                      9
                      A                      A                      A
 Frequencies --    416.2870               443.8404               556.2682
 Red. masses --      1.9004                 1.7470                 2.5823
 Frc consts  --      0.1940                 0.2028                 0.4708
 IR Inten    --      0.0043                 0.8168                 0.9065
  Atom  AN      X      Y      Z        X      Y      Z        X      Y      Z
     1   6    -0.06   0.01  -0.02     0.07  -0.01   0.04    -0.12   0.03  -0.06
     2   6    -0.10   0.01  -0.03     0.01  -0.00  -0.01     0.15  -0.02   0.09
     3   6     0.01   0.01   0.03    -0.08   0.01  -0.07    -0.08   0.02  -0.04
     4   6    -0.01   0.01  -0.03    -0.08  -0.01  -0.07     0.08   0.02   0.04
     5   6     0.10   0.01   0.03     0.01   0.00  -0.01    -0.15  -0.02  -0.09
     6   6     0.06  -0.01   0.05    -0.08   0.01  -0.06     0.09  -0.01   0.07
     7   6     0.06   0.01   0.02     0.07   0.01   0.04     0.12   0.03   0.06
     8   6    -0.06  -0.01  -0.05    -0.08  -0.01  -0.06    -0.09  -0.01  -0.07
     9   6     0.11  -0.01   0.07     0.05  -0.01   0.06     0.01  -0.01  -0.01
    10   6    -0.11  -0.01  -0.07     0.05   0.01   0.06    -0.01  -0.01   0.01
    11   1    -0.09   0.01  -0.04     0.17  -0.03   0.11    -0.36   0.06  -0.20
    12   1    -0.19   0.04  -0.09    -0.01   0.00  -0.02     0.36  -0.06   0.20
    13   1    -0.06   0.00  -0.02    -0.13   0.01  -0.10     0.02   0.01   0.02
    14   1     0.06   0.00   0.02    -0.13  -0.01  -0.10    -0.02   0.01  -0.02
    15   1     0.19   0.04   0.09    -0.01  -0.00  -0.02    -0.36  -0.06  -0.20
    16   1     0.13  -0.02   0.10    -0.08   0.01  -0.06    -0.05  -0.01  -0.02
    17   1     0.09   0.01   0.04     0.17   0.03   0.11     0.36   0.06   0.20
    18   1    -0.13  -0.02  -0.10    -0.08  -0.01  -0.06     0.05  -0.01   0.02
    19   1     0.11  -0.23   0.35     0.04  -0.24   0.39     0.09  -0.21  -0.03
    20   1     0.38   0.17   0.10     0.36   0.19   0.09     0.03   0.14   0.05
    21   1    -0.11  -0.23  -0.35     0.04   0.24   0.39    -0.09  -0.21   0.03
    22   1    -0.38   0.17  -0.10     0.36  -0.19   0.09    -0.03   0.14  -0.05
                     10                     11                     12
                      A                      A                      A
 Frequencies --    576.7806               704.5936               705.5341
 Red. masses --      2.4954                 1.2015                 1.2655
 Frc consts  --      0.4891                 0.3514                 0.3711
 IR Inten    --      5.3197                92.9334                 0.9035
  Atom  AN      X      Y      Z        X      Y      Z        X      Y      Z
     1   6    -0.09   0.03  -0.06    -0.05  -0.01  -0.04     0.06   0.01   0.05
     2   6     0.15  -0.02   0.07     0.01  -0.01   0.00    -0.02   0.02  -0.00
     3   6    -0.12   0.03  -0.07     0.02  -0.01   0.02    -0.00   0.01  -0.02
     4   6    -0.12  -0.03  -0.07     0.02   0.01   0.02     0.00   0.01   0.02
     5   6     0.15   0.02   0.07     0.01   0.01   0.00     0.02   0.02   0.00
     6   6     0.08   0.00   0.04    -0.01   0.01  -0.03     0.01  -0.02   0.03
     7   6    -0.09  -0.03  -0.06    -0.05   0.01  -0.04    -0.06   0.01  -0.05
     8   6     0.08  -0.00   0.04    -0.01  -0.01  -0.03    -0.01  -0.02  -0.03
     9   6    -0.01  -0.00   0.02    -0.04  -0.02  -0.00    -0.06  -0.02   0.00
    10   6    -0.01   0.00   0.02    -0.04   0.02  -0.00     0.06  -0.02  -0.00
    11   1    -0.30   0.06  -0.18     0.21  -0.05   0.13    -0.19   0.05  -0.12
    12   1     0.41  -0.08   0.21     0.16  -0.02   0.08    -0.15   0.01  -0.07
    13   1    -0.09   0.02  -0.07     0.04  -0.02  -0.00     0.01   0.03   0.03
    14   1    -0.09  -0.02  -0.07     0.04   0.02  -0.00    -0.01   0.03  -0.03
    15   1     0.41   0.08   0.21     0.16   0.02   0.08     0.15   0.01   0.07
    16   1    -0.05   0.00  -0.04     0.52  -0.04   0.29    -0.52   0.04  -0.28
    17   1    -0.30  -0.06  -0.18     0.21   0.05   0.13     0.19   0.05   0.12
    18   1    -0.05  -0.00  -0.04     0.52   0.04   0.29     0.52   0.04   0.28
    19   1    -0.11   0.12   0.18    -0.01  -0.14   0.07    -0.04  -0.16   0.11
    20   1     0.11  -0.07  -0.04     0.05   0.10   0.03     0.07   0.10   0.04
    21   1    -0.11  -0.12   0.18    -0.01   0.14   0.07     0.04  -0.16  -0.11
    22   1     0.11   0.07  -0.04     0.05  -0.10   0.03    -0.07   0.10  -0.04
                     13                     14                     15
                      A                      A                      A
 Frequencies --    770.8105               776.5367               803.5454
 Red. masses --      1.2944                 1.2687                 3.4770
 Frc consts  --      0.4531                 0.4507                 1.3228
 IR Inten    --      0.4609                86.0568                 0.0919
  Atom  AN      X      Y      Z        X      Y      Z        X      Y      Z
     1   6    -0.00   0.03   0.02     0.01   0.00   0.01     0.06   0.01  -0.04
     2   6    -0.06   0.04  -0.05    -0.08   0.01  -0.06     0.01  -0.07  -0.12
     3   6     0.02  -0.02  -0.00     0.01  -0.01  -0.00    -0.05  -0.14   0.05
     4   6    -0.02  -0.02   0.00     0.01   0.01  -0.00     0.05  -0.14  -0.05
     5   6     0.06   0.04   0.05    -0.08  -0.01  -0.06    -0.01  -0.07   0.12
     6   6    -0.00  -0.02   0.03     0.02  -0.01   0.02     0.11   0.08  -0.02
     7   6     0.00   0.03  -0.02     0.01  -0.00   0.01    -0.06   0.01   0.04
     8   6     0.00  -0.02  -0.03     0.02   0.01   0.02    -0.11   0.08   0.02
     9   6    -0.01  -0.02   0.01    -0.02   0.00  -0.01     0.15   0.11  -0.10
    10   6     0.01  -0.02  -0.01    -0.02  -0.00  -0.01    -0.15   0.11   0.10
    11   1     0.12   0.02   0.06     0.10  -0.01   0.05    -0.15  -0.03   0.07
    12   1     0.41  -0.10   0.20     0.45  -0.16   0.23     0.05   0.04  -0.11
    13   1     0.40   0.02   0.29     0.31   0.01   0.21     0.14  -0.16   0.09
    14   1    -0.40   0.02  -0.29     0.31  -0.01   0.21    -0.14  -0.16  -0.09
    15   1    -0.41  -0.10  -0.20     0.45   0.16   0.23    -0.05   0.04   0.11
    16   1    -0.03  -0.03   0.01    -0.18  -0.01  -0.11    -0.22  -0.05  -0.34
    17   1    -0.12   0.02  -0.06     0.10   0.01   0.05     0.15  -0.03  -0.07
    18   1     0.03  -0.03  -0.01    -0.18   0.01  -0.11     0.22  -0.05   0.34
    19   1    -0.01  -0.04   0.03    -0.04  -0.02   0.09     0.19   0.11  -0.25
    20   1    -0.00   0.04   0.04     0.09   0.02  -0.02    -0.04   0.10  -0.07
    21   1     0.01  -0.04  -0.03    -0.04   0.02   0.09    -0.19   0.11   0.25
    22   1     0.00   0.04  -0.04     0.09  -0.02  -0.02     0.04   0.10   0.07
                     16                     17                     18
                      A                      A                      A
 Frequencies --    819.6868               827.6955               836.5302
 Red. masses --      4.2218                 5.2163                 4.3546
 Frc consts  --      1.6712                 2.1055                 1.7954
 IR Inten    --      2.9539                13.2972                 1.7183
  Atom  AN      X      Y      Z        X      Y      Z        X      Y      Z
     1   6     0.06  -0.01  -0.05     0.02  -0.25  -0.07    -0.01   0.22   0.06
     2   6     0.04  -0.08  -0.10    -0.14  -0.01   0.20     0.15   0.00  -0.15
     3   6    -0.03  -0.18   0.09    -0.03   0.10   0.06     0.02  -0.09  -0.06
     4   6    -0.03   0.18   0.09    -0.03  -0.10   0.06    -0.02  -0.09   0.06
     5   6     0.04   0.08  -0.10    -0.14   0.01   0.20    -0.15   0.00   0.15
     6   6     0.10   0.12  -0.06     0.11   0.02  -0.13    -0.12  -0.01   0.10
     7   6     0.06   0.01  -0.05     0.02   0.25  -0.07     0.01   0.22  -0.05
     8   6     0.10  -0.12  -0.06     0.11  -0.02  -0.13     0.12  -0.01  -0.10
     9   6    -0.14  -0.13   0.13     0.04  -0.13  -0.05     0.02  -0.12  -0.05
    10   6    -0.14   0.13   0.13     0.04   0.13  -0.05    -0.02  -0.12   0.05
    11   1    -0.23  -0.06   0.09    -0.02  -0.22  -0.18    -0.01   0.20   0.13
    12   1    -0.09   0.16  -0.19     0.02   0.15   0.26    -0.19  -0.09  -0.32
    13   1     0.09  -0.22   0.04     0.09  -0.02  -0.18    -0.20   0.01   0.08
    14   1     0.09   0.22   0.04     0.09   0.02  -0.18     0.20   0.01  -0.08
    15   1    -0.09  -0.16  -0.19     0.02  -0.15   0.26     0.19  -0.09   0.32
    16   1    -0.05  -0.02  -0.27    -0.13   0.25  -0.11     0.16  -0.22   0.12
    17   1    -0.23   0.06   0.09    -0.02   0.22  -0.18     0.01   0.20  -0.13
    18   1    -0.05   0.02  -0.27    -0.13  -0.25  -0.11    -0.16  -0.22  -0.12
    19   1    -0.13  -0.12   0.13    -0.02  -0.03   0.04    -0.05  -0.02   0.07
    20   1    -0.07  -0.11   0.13    -0.00   0.02   0.04     0.01   0.01   0.03
    21   1    -0.13   0.12   0.13    -0.02   0.03   0.04     0.05  -0.02  -0.07
    22   1    -0.07   0.11   0.13    -0.00  -0.02   0.04    -0.01   0.01  -0.03
                     19                     20                     21
                      A                      A                      A
 Frequencies --    894.2616               907.7697               917.8411
 Red. masses --      1.9177                 1.6053                 1.2645
 Frc consts  --      0.9036                 0.7794                 0.6276
 IR Inten    --     13.7097                11.7667                 1.1080
  Atom  AN      X      Y      Z        X      Y      Z        X      Y      Z
     1   6    -0.01   0.03   0.01    -0.01  -0.01   0.02     0.01   0.01  -0.01
     2   6    -0.03  -0.01  -0.01     0.03   0.01   0.03    -0.05  -0.03  -0.05
     3   6     0.10   0.08  -0.04     0.04   0.04  -0.03     0.01   0.01   0.01
     4   6    -0.10   0.08   0.04     0.04  -0.04  -0.03    -0.01   0.01  -0.01
     5   6     0.03  -0.01   0.01     0.03  -0.01   0.03     0.05  -0.03   0.05
     6   6     0.03  -0.07   0.06     0.02  -0.07   0.04    -0.00   0.04  -0.02
     7   6     0.01   0.03  -0.01    -0.01   0.01   0.02    -0.01   0.01   0.01
     8   6    -0.03  -0.07  -0.06     0.02   0.07   0.04     0.00   0.04   0.02
     9   6     0.10  -0.00   0.04    -0.10  -0.03  -0.05    -0.03  -0.02  -0.04
    10   6    -0.10  -0.00  -0.04    -0.10   0.03  -0.05     0.03  -0.02   0.04
    11   1     0.01   0.06  -0.11    -0.07   0.02  -0.12    -0.02  -0.00   0.05
    12   1     0.02  -0.25   0.04    -0.31   0.02  -0.15     0.35  -0.18   0.17
    13   1    -0.06   0.04  -0.25     0.36   0.00   0.04    -0.46   0.02  -0.22
    14   1     0.06   0.04   0.25     0.36  -0.00   0.04     0.46   0.02   0.22
    15   1    -0.02  -0.25  -0.04    -0.31  -0.02  -0.15    -0.35  -0.18  -0.17
    16   1    -0.17  -0.11  -0.09    -0.01  -0.10  -0.00    -0.03   0.03  -0.05
    17   1    -0.01   0.06   0.11    -0.07  -0.02  -0.12     0.02  -0.00  -0.05
    18   1     0.17  -0.11   0.09    -0.01   0.10  -0.00     0.03   0.03   0.05
    19   1     0.17   0.12  -0.35    -0.16  -0.13   0.29    -0.04  -0.09   0.08
    20   1    -0.23  -0.22   0.01     0.23   0.10  -0.06     0.12   0.02  -0.06
    21   1    -0.17   0.12   0.35    -0.16   0.13   0.29     0.04  -0.09  -0.08
    22   1     0.23  -0.22  -0.01     0.23  -0.10  -0.06    -0.12   0.02   0.06
                     22                     23                     24
                      A                      A                      A
 Frequencies --    944.0896               947.6691               953.6205
 Red. masses --      1.7837                 1.5237                 1.3264
 Frc consts  --      0.9367                 0.8062                 0.7107
 IR Inten    --     10.0933                 1.5002                 5.0427
  Atom  AN      X      Y      Z        X      Y      Z        X      Y      Z
     1   6    -0.04  -0.02   0.01    -0.08   0.01  -0.03    -0.08   0.02  -0.05
     2   6     0.04   0.02  -0.01     0.02   0.00  -0.00     0.02  -0.01   0.02
     3   6    -0.06  -0.02   0.05    -0.02  -0.01   0.04     0.00   0.00  -0.01
     4   6    -0.06   0.02   0.05     0.02  -0.01  -0.04     0.00  -0.00  -0.01
     5   6     0.04  -0.02  -0.01    -0.02   0.00   0.00     0.02   0.01   0.02
     6   6     0.04   0.09  -0.01     0.06   0.05   0.02     0.03  -0.03   0.02
     7   6    -0.04   0.02   0.01     0.08   0.01   0.03    -0.08  -0.02  -0.05
     8   6     0.04  -0.09  -0.01    -0.06   0.05  -0.02     0.03   0.03   0.02
     9   6     0.02   0.08  -0.09    -0.01  -0.06   0.06     0.01  -0.02   0.02
    10   6     0.02  -0.08  -0.09     0.01  -0.06  -0.06     0.01   0.02   0.02
    11   1     0.01  -0.09   0.23     0.38  -0.08   0.33     0.53  -0.05   0.27
    12   1    -0.11   0.18  -0.11    -0.06   0.05  -0.05    -0.12   0.03  -0.06
    13   1     0.06   0.07   0.38    -0.14   0.05   0.13     0.02  -0.02  -0.06
    14   1     0.06  -0.07   0.38     0.14   0.05  -0.13     0.02   0.02  -0.06
    15   1    -0.11  -0.18  -0.11     0.06   0.05   0.05    -0.12  -0.03  -0.06
    16   1    -0.10   0.33   0.09    -0.28   0.21  -0.09    -0.23  -0.07  -0.18
    17   1     0.01   0.09   0.23    -0.38  -0.08  -0.33     0.53   0.05   0.27
    18   1    -0.10  -0.33   0.09     0.28   0.21   0.09    -0.23   0.07  -0.18
    19   1    -0.03   0.07   0.09     0.02  -0.04  -0.07    -0.00   0.04  -0.02
    20   1     0.14   0.18  -0.07    -0.10  -0.14   0.04    -0.03  -0.10  -0.00
    21   1    -0.03  -0.07   0.09    -0.02  -0.04   0.07    -0.00  -0.04  -0.02
    22   1     0.14  -0.18  -0.07     0.10  -0.14  -0.04    -0.03   0.10  -0.00
                     25                     26                     27
                      A                      A                      A
 Frequencies --    956.1185               980.6113               981.2798
 Red. masses --      1.5947                 1.5930                 1.7027
 Frc consts  --      0.8589                 0.9025                 0.9660
 IR Inten    --      0.0517                 4.3957                18.0164
  Atom  AN      X      Y      Z        X      Y      Z        X      Y      Z
     1   6     0.05  -0.02   0.05    -0.01  -0.01   0.02     0.02  -0.02  -0.01
     2   6    -0.01   0.02  -0.02     0.01  -0.01   0.00     0.02   0.01   0.00
     3   6    -0.01  -0.02   0.05     0.04   0.06  -0.06    -0.09  -0.06   0.03
     4   6     0.01  -0.02  -0.05    -0.04   0.06   0.06    -0.09   0.06   0.03
     5   6     0.01   0.02   0.02    -0.01  -0.01  -0.00     0.02  -0.01   0.00
     6   6     0.01   0.07  -0.01     0.01   0.07  -0.05    -0.04  -0.07   0.03
     7   6    -0.05  -0.02  -0.05     0.01  -0.01  -0.02     0.02   0.02  -0.01
     8   6    -0.01   0.07   0.01    -0.01   0.07   0.05    -0.04   0.07   0.03
     9   6     0.02  -0.07   0.09     0.02  -0.06  -0.07     0.06  -0.07  -0.04
    10   6    -0.02  -0.07  -0.09    -0.02  -0.06   0.07     0.06   0.07  -0.04
    11   1    -0.46   0.02  -0.13    -0.09  -0.05   0.14     0.04   0.01  -0.12
    12   1     0.07   0.05   0.01    -0.09  -0.10  -0.05     0.00   0.20  -0.02
    13   1    -0.10   0.05   0.19     0.31   0.02  -0.04     0.07  -0.01   0.28
    14   1     0.10   0.05  -0.19    -0.31   0.02   0.04     0.07   0.01   0.28
    15   1    -0.07   0.05  -0.01     0.09  -0.10   0.05     0.00  -0.20  -0.02
    16   1     0.09   0.24   0.17     0.04   0.14   0.02     0.08  -0.14   0.06
    17   1     0.46   0.02   0.13     0.09  -0.05  -0.14     0.04  -0.01  -0.12
    18   1    -0.09   0.24  -0.17    -0.04   0.14  -0.02     0.08   0.14   0.06
    19   1     0.03   0.06  -0.11     0.12  -0.29  -0.08     0.13  -0.17  -0.16
    20   1    -0.16  -0.23   0.05     0.28  -0.26  -0.23     0.18  -0.39  -0.22
    21   1    -0.03   0.06   0.11    -0.12  -0.29   0.08     0.13   0.17  -0.16
    22   1     0.16  -0.23  -0.05    -0.28  -0.26   0.23     0.18   0.39  -0.22
                     28                     29                     30
                      A                      A                      A
 Frequencies --    988.0002              1065.4004              1065.6650
 Red. masses --      1.5241                 1.6907                 1.7548
 Frc consts  --      0.8766                 1.1307                 1.1742
 IR Inten    --     16.1528                 0.1261                 5.2267
  Atom  AN      X      Y      Z        X      Y      Z        X      Y      Z
     1   6     0.00  -0.04   0.01    -0.04  -0.09   0.03    -0.04  -0.10   0.03
     2   6     0.03  -0.01  -0.01     0.05   0.06  -0.08     0.04   0.07  -0.08
     3   6    -0.04   0.05  -0.07     0.04   0.04  -0.02     0.05   0.05  -0.01
     4   6    -0.04  -0.05  -0.07    -0.04   0.04   0.02     0.05  -0.05  -0.01
     5   6     0.03   0.01  -0.01    -0.05   0.06   0.08     0.04  -0.07  -0.08
     6   6    -0.04   0.01  -0.05    -0.02  -0.05   0.03    -0.01  -0.05   0.03
     7   6     0.00   0.04   0.01     0.04  -0.09  -0.03    -0.04   0.10   0.03
     8   6    -0.04  -0.01  -0.05     0.02  -0.05  -0.03    -0.01   0.05   0.03
     9   6     0.03  -0.00   0.08     0.01   0.02  -0.01    -0.01  -0.03   0.01
    10   6     0.03   0.00   0.08    -0.01   0.02   0.01    -0.01   0.03   0.01
    11   1    -0.05  -0.06   0.09    -0.23  -0.20   0.35    -0.23  -0.20   0.34
    12   1    -0.09  -0.04  -0.07     0.18   0.43  -0.06     0.22   0.40  -0.03
    13   1     0.46   0.06   0.21    -0.08   0.04  -0.10    -0.14   0.05  -0.12
    14   1     0.46  -0.06   0.21     0.08   0.04   0.10    -0.14  -0.05  -0.12
    15   1    -0.09   0.04  -0.07    -0.18   0.43   0.06     0.22  -0.40  -0.03
    16   1     0.13  -0.01   0.06    -0.04  -0.08  -0.00    -0.05  -0.07  -0.00
    17   1    -0.05   0.06   0.09     0.23  -0.20  -0.35    -0.23   0.20   0.33
    18   1     0.13   0.01   0.06     0.04  -0.08   0.00    -0.05   0.07  -0.00
    19   1    -0.06   0.31  -0.04     0.02   0.01  -0.03    -0.01  -0.01   0.01
    20   1    -0.22  -0.12   0.08     0.00   0.06   0.00    -0.03  -0.05   0.01
    21   1    -0.06  -0.31  -0.04    -0.02   0.01   0.03    -0.01   0.01   0.01
    22   1    -0.22   0.12   0.08    -0.00   0.06  -0.00    -0.03   0.05   0.01
                     31                     32                     33
                      A                      A                      A
 Frequencies --   1100.7680              1101.2173              1118.0774
 Red. masses --      1.1526                 1.2102                 1.3472
 Frc consts  --      0.8228                 0.8646                 0.9923
 IR Inten    --      0.2338                 0.2556                 0.8324
  Atom  AN      X      Y      Z        X      Y      Z        X      Y      Z
     1   6     0.01   0.02  -0.01     0.01   0.03  -0.01     0.01  -0.06  -0.03
     2   6    -0.01   0.03   0.00    -0.02   0.03   0.02     0.03  -0.01  -0.06
     3   6     0.00  -0.06  -0.01     0.01  -0.07  -0.01     0.01   0.02   0.01
     4   6     0.00   0.06  -0.01    -0.01  -0.07   0.01    -0.01   0.02  -0.01
     5   6    -0.01  -0.03   0.00     0.02   0.03  -0.02    -0.03  -0.01   0.06
     6   6    -0.04   0.00   0.02    -0.01   0.01   0.03    -0.05  -0.02   0.03
     7   6     0.01  -0.02  -0.01    -0.01   0.03   0.01    -0.01  -0.06   0.03
     8   6    -0.04  -0.00   0.02     0.01   0.01  -0.03     0.05  -0.02  -0.03
     9   6     0.01   0.01   0.00     0.00  -0.02   0.00     0.01   0.04  -0.03
    10   6     0.01  -0.01   0.00    -0.00  -0.02  -0.00    -0.01   0.04   0.03
    11   1     0.13   0.07  -0.17     0.11   0.08  -0.15     0.18   0.01  -0.26
    12   1     0.08   0.33   0.02     0.10   0.35   0.05    -0.00  -0.08  -0.08
    13   1     0.19  -0.21  -0.31     0.12  -0.25  -0.41    -0.08   0.09   0.13
    14   1     0.19   0.21  -0.31    -0.12  -0.25   0.41     0.08   0.09  -0.13
    15   1     0.08  -0.32   0.02    -0.10   0.35  -0.05     0.00  -0.08   0.08
    16   1    -0.06   0.23   0.18    -0.08   0.18   0.11    -0.10   0.34   0.28
    17   1     0.13  -0.07  -0.17    -0.11   0.08   0.15    -0.18   0.01   0.26
    18   1    -0.06  -0.23   0.18     0.08   0.19  -0.11     0.10   0.34  -0.28
    19   1    -0.11   0.22   0.10     0.03  -0.07  -0.04     0.15  -0.22  -0.16
    20   1     0.01  -0.02  -0.02     0.02  -0.09  -0.03    -0.02   0.19   0.05
    21   1    -0.11  -0.22   0.10    -0.03  -0.07   0.04    -0.15  -0.22   0.16
    22   1     0.01   0.02  -0.02    -0.02  -0.09   0.03     0.02   0.19  -0.05
                     34                     35                     36
                      A                      A                      A
 Frequencies --   1124.3846              1131.2149              1144.4226
 Red. masses --      1.3924                 1.1950                 1.1755
 Frc consts  --      1.0371                 0.9009                 0.9071
 IR Inten    --      2.1596                 5.7242                 4.7343
  Atom  AN      X      Y      Z        X      Y      Z        X      Y      Z
     1   6    -0.00   0.06   0.03    -0.01  -0.03  -0.01     0.00  -0.02  -0.01
     2   6    -0.04   0.01   0.06     0.02   0.00  -0.03     0.00  -0.00  -0.03
     3   6    -0.00  -0.02   0.01    -0.02   0.01  -0.03     0.05   0.01   0.04
     4   6    -0.00   0.02   0.01     0.02   0.01   0.03     0.05  -0.01   0.04
     5   6    -0.04  -0.01   0.06    -0.02   0.00   0.03     0.00   0.00  -0.03
     6   6     0.00   0.02  -0.05     0.03  -0.01   0.05    -0.03  -0.00  -0.02
     7   6    -0.00  -0.06   0.03     0.01  -0.03   0.01     0.00   0.02  -0.01
     8   6     0.00  -0.02  -0.05    -0.03  -0.01  -0.05    -0.03   0.00  -0.02
     9   6     0.03   0.03  -0.04     0.02   0.00  -0.03    -0.00  -0.03  -0.01
    10   6     0.03  -0.03  -0.04    -0.02   0.00   0.03    -0.00   0.03  -0.01
    11   1    -0.17  -0.02   0.30     0.05   0.01  -0.16     0.05  -0.01  -0.03
    12   1    -0.01   0.13   0.07     0.04  -0.02  -0.02    -0.02  -0.21  -0.02
    13   1     0.10  -0.11  -0.14    -0.01   0.04   0.05    -0.25   0.08   0.08
    14   1     0.10   0.11  -0.14     0.01   0.04  -0.05    -0.25  -0.08   0.08
    15   1    -0.01  -0.13   0.07    -0.04  -0.02   0.02    -0.02   0.21  -0.02
    16   1     0.16  -0.36  -0.25    -0.12   0.16   0.09     0.02   0.05   0.05
    17   1    -0.17   0.01   0.30    -0.05   0.01   0.16     0.05   0.01  -0.03
    18   1     0.16   0.36  -0.25     0.12   0.16  -0.09     0.02  -0.05   0.05
    19   1    -0.07   0.18   0.07    -0.22   0.41   0.25    -0.24   0.34   0.27
    20   1     0.13  -0.07  -0.12     0.18  -0.24  -0.19     0.14  -0.27  -0.15
    21   1    -0.07  -0.18   0.07     0.22   0.41  -0.25    -0.24  -0.34   0.27
    22   1     0.13   0.07  -0.12    -0.18  -0.24   0.19     0.14   0.27  -0.15
                     37                     38                     39
                      A                      A                      A
 Frequencies --   1276.5945              1280.9480              1310.5469
 Red. masses --      1.6377                 1.6333                 1.6383
 Frc consts  --      1.5725                 1.5790                 1.6578
 IR Inten    --      3.8255                 2.4699                 1.6126
  Atom  AN      X      Y      Z        X      Y      Z        X      Y      Z
     1   6     0.02  -0.02  -0.03     0.01  -0.02  -0.03    -0.02  -0.04   0.03
     2   6    -0.01   0.03   0.02    -0.01   0.03   0.03    -0.02  -0.04   0.03
     3   6     0.02   0.03  -0.01     0.02   0.03  -0.02     0.06  -0.01  -0.08
     4   6     0.02  -0.03  -0.01    -0.02   0.03   0.02    -0.06  -0.01   0.08
     5   6    -0.01  -0.03   0.02     0.01   0.03  -0.03     0.02  -0.04  -0.03
     6   6     0.01   0.02  -0.02     0.01   0.02  -0.03    -0.00   0.09   0.01
     7   6     0.02   0.02  -0.03    -0.01  -0.02   0.03     0.02  -0.04  -0.03
     8   6     0.01  -0.02  -0.02    -0.01   0.02   0.03     0.00   0.09  -0.01
     9   6    -0.07   0.12   0.07     0.06  -0.11  -0.07     0.03  -0.04  -0.03
    10   6    -0.07  -0.12   0.07    -0.06  -0.11   0.07    -0.03  -0.04   0.03
    11   1    -0.05  -0.06   0.10    -0.05  -0.06   0.09     0.19   0.07  -0.32
    12   1    -0.05  -0.10   0.02    -0.05  -0.10   0.02     0.06   0.36   0.03
    13   1     0.10  -0.03  -0.14     0.11  -0.03  -0.13    -0.14   0.16   0.25
    14   1     0.10   0.03  -0.14    -0.11  -0.03   0.13     0.14   0.16  -0.25
    15   1    -0.05   0.10   0.02     0.05  -0.10  -0.02    -0.06   0.36  -0.03
    16   1    -0.03   0.18   0.06    -0.03   0.18   0.06     0.07  -0.21  -0.17
    17   1    -0.05   0.06   0.10     0.05  -0.06  -0.09    -0.19   0.07   0.32
    18   1    -0.03  -0.18   0.06     0.03   0.18  -0.06    -0.07  -0.21   0.17
    19   1     0.12  -0.22  -0.12    -0.13   0.22   0.13     0.01  -0.00  -0.02
    20   1     0.24  -0.41  -0.26    -0.24   0.41   0.26    -0.04   0.06   0.04
    21   1     0.12   0.22  -0.12     0.13   0.22  -0.13    -0.01  -0.00   0.02
    22   1     0.24   0.41  -0.26     0.24   0.41  -0.26     0.04   0.06  -0.04
                     40                     41                     42
                      A                      A                      A
 Frequencies --   1310.9282              1407.2956              1418.9695
 Red. masses --      1.6338                 2.7054                 2.1274
 Frc consts  --      1.6543                 3.1569                 2.5237
 IR Inten    --      2.1296                17.4841                 9.5783
  Atom  AN      X      Y      Z        X      Y      Z        X      Y      Z
     1   6     0.02   0.04  -0.03    -0.08  -0.09   0.10    -0.06  -0.10   0.08
     2   6     0.02   0.04  -0.03     0.05   0.19  -0.01     0.05   0.11  -0.06
     3   6    -0.06   0.01   0.08     0.02  -0.09   0.00    -0.05  -0.00   0.06
     4   6    -0.06  -0.01   0.08    -0.02  -0.09  -0.00    -0.05   0.00   0.06
     5   6     0.02  -0.04  -0.03    -0.05   0.19   0.01     0.05  -0.11  -0.06
     6   6     0.01  -0.09  -0.01     0.03   0.04  -0.04     0.01   0.08   0.01
     7   6     0.02  -0.04  -0.03     0.08  -0.09  -0.10    -0.06   0.10   0.08
     8   6     0.01   0.09  -0.01    -0.03   0.04   0.04     0.01  -0.08   0.01
     9   6     0.03  -0.04  -0.03     0.02   0.03  -0.02     0.01   0.02  -0.01
    10   6     0.03   0.04  -0.03    -0.02   0.03   0.02     0.01  -0.02  -0.01
    11   1    -0.18  -0.07   0.32     0.13   0.01  -0.22     0.18   0.01  -0.30
    12   1    -0.06  -0.37  -0.03    -0.07  -0.41  -0.02    -0.01  -0.30  -0.07
    13   1     0.14  -0.16  -0.25    -0.09  -0.13  -0.11     0.13  -0.16  -0.25
    14   1     0.14   0.16  -0.25     0.09  -0.13   0.11     0.13   0.16  -0.25
    15   1    -0.06   0.37  -0.03     0.07  -0.41   0.02    -0.01   0.30  -0.07
    16   1    -0.07   0.21   0.16     0.06  -0.11  -0.14     0.08  -0.25  -0.20
    17   1    -0.18   0.07   0.32    -0.13   0.01   0.22     0.18  -0.01  -0.30
    18   1    -0.07  -0.21   0.16    -0.06  -0.11   0.14     0.08   0.25  -0.20
    19   1     0.02  -0.01  -0.02     0.01  -0.17   0.19     0.04   0.05  -0.10
    20   1    -0.04   0.07   0.05    -0.18  -0.12  -0.03     0.07   0.05  -0.02
    21   1     0.02   0.01  -0.02    -0.01  -0.17  -0.19     0.04  -0.05  -0.10
    22   1    -0.04  -0.07   0.05     0.18  -0.12   0.03     0.07  -0.05  -0.02
                     43                     44                     45
                      A                      A                      A
 Frequencies --   1434.8389              1447.7065              1456.9429
 Red. masses --      2.3517                 1.2466                 1.2201
 Frc consts  --      2.8525                 1.5394                 1.5260
 IR Inten    --      0.9443                13.4610                 3.7659
  Atom  AN      X      Y      Z        X      Y      Z        X      Y      Z
     1   6    -0.01  -0.07   0.01    -0.01   0.01   0.02     0.01   0.00  -0.01
     2   6     0.04  -0.03  -0.08    -0.00   0.03   0.02    -0.00  -0.05  -0.02
     3   6    -0.07   0.10   0.11     0.01  -0.03  -0.03    -0.02   0.05   0.02
     4   6     0.07   0.10  -0.11     0.01   0.03  -0.03     0.02   0.05  -0.02
     5   6    -0.04  -0.03   0.08    -0.00  -0.03   0.02     0.00  -0.05   0.02
     6   6    -0.03   0.09   0.06     0.01  -0.02  -0.03    -0.02   0.01   0.02
     7   6     0.01  -0.07  -0.01    -0.01  -0.01   0.02    -0.01   0.00   0.01
     8   6     0.03   0.09  -0.06     0.01   0.02  -0.03     0.02   0.01  -0.02
     9   6    -0.04  -0.06   0.04    -0.04  -0.05   0.04     0.03   0.02  -0.02
    10   6     0.04  -0.06  -0.04    -0.04   0.05   0.04    -0.03   0.02   0.02
    11   1     0.13  -0.01  -0.23    -0.01   0.01   0.03     0.01   0.00  -0.01
    12   1     0.03  -0.08  -0.10    -0.01  -0.02   0.02     0.04   0.08  -0.02
    13   1     0.26  -0.11  -0.29    -0.06   0.02   0.07     0.08   0.01  -0.05
    14   1    -0.26  -0.11   0.29    -0.06  -0.02   0.07    -0.08   0.01   0.05
    15   1    -0.03  -0.08   0.10    -0.01   0.02   0.02    -0.04   0.08   0.02
    16   1     0.07  -0.29  -0.16    -0.02   0.07   0.03    -0.00  -0.03   0.00
    17   1    -0.13  -0.01   0.23    -0.01  -0.01   0.03    -0.01   0.00   0.01
    18   1    -0.07  -0.29   0.16    -0.02  -0.07   0.03     0.00  -0.03  -0.00
    19   1    -0.04   0.12  -0.15     0.00   0.27  -0.41    -0.02  -0.25   0.40
    20   1     0.15   0.09   0.07     0.43   0.22   0.04    -0.45  -0.21  -0.01
    21   1     0.04   0.12   0.15     0.00  -0.27  -0.41     0.02  -0.25  -0.40
    22   1    -0.15   0.09  -0.07     0.43  -0.22   0.04     0.45  -0.21   0.01
                     46                     47                     48
                      A                      A                      A
 Frequencies --   1480.5780              1574.0148              1582.6228
 Red. masses --      3.5178                 4.4948                 4.6957
 Frc consts  --      4.5434                 6.5611                 6.9296
 IR Inten    --      1.9099                 4.5480                 0.6341
  Atom  AN      X      Y      Z        X      Y      Z        X      Y      Z
     1   6     0.05  -0.00  -0.09    -0.11   0.08   0.21     0.12  -0.08  -0.24
     2   6     0.00  -0.18  -0.07     0.01  -0.14  -0.08    -0.02   0.11   0.07
     3   6    -0.04   0.17   0.12    -0.02   0.09   0.08     0.02  -0.07  -0.06
     4   6    -0.04  -0.17   0.12    -0.02  -0.09   0.08    -0.02  -0.07   0.06
     5   6     0.00   0.18  -0.07     0.01   0.14  -0.08     0.02   0.11  -0.07
     6   6    -0.06   0.06   0.11     0.10  -0.11  -0.18    -0.10   0.12   0.20
     7   6     0.05   0.00  -0.09    -0.11  -0.08   0.21    -0.12  -0.08   0.24
     8   6    -0.06  -0.06   0.11     0.10   0.11  -0.18     0.10   0.12  -0.20
     9   6    -0.01   0.01  -0.01    -0.01   0.01   0.02    -0.01   0.01   0.02
    10   6    -0.01  -0.01  -0.01    -0.01  -0.01   0.02     0.01   0.01  -0.02
    11   1     0.01  -0.04  -0.01     0.15   0.25  -0.20    -0.15  -0.25   0.21
    12   1     0.06   0.16  -0.10     0.13   0.27  -0.08    -0.10  -0.24   0.08
    13   1     0.15   0.03  -0.21     0.04   0.03  -0.11    -0.05  -0.02   0.07
    14   1     0.15  -0.03  -0.21     0.04  -0.03  -0.11     0.05  -0.02  -0.07
    15   1     0.06  -0.16  -0.10     0.13  -0.27  -0.08     0.10  -0.24  -0.08
    16   1     0.00  -0.18  -0.01     0.01   0.26  -0.01    -0.02  -0.27   0.01
    17   1     0.01   0.04  -0.01     0.15  -0.25  -0.20     0.15  -0.25  -0.21
    18   1     0.00   0.18  -0.01     0.01  -0.26  -0.01     0.02  -0.27  -0.01
    19   1     0.02   0.18  -0.24     0.04  -0.09  -0.03     0.05  -0.10  -0.01
    20   1     0.36   0.16  -0.04     0.04  -0.16  -0.08     0.01  -0.17  -0.07
    21   1     0.02  -0.18  -0.24     0.04   0.09  -0.03    -0.05  -0.10   0.01
    22   1     0.36  -0.16  -0.04     0.04   0.16  -0.08    -0.01  -0.17   0.07
                     49                     50                     51
                      A                      A                      A
 Frequencies --   2978.4037              2978.4882              3091.9541
 Red. masses --      1.0725                 1.0728                 1.0870
 Frc consts  --      5.6056                 5.6073                 6.1228
 IR Inten    --     77.3012                10.7055                15.5120
  Atom  AN      X      Y      Z        X      Y      Z        X      Y      Z
     1   6     0.00   0.00  -0.00     0.00   0.00  -0.00     0.00  -0.00   0.00
     2   6    -0.00  -0.00   0.00    -0.00  -0.00   0.00    -0.00   0.00   0.00
     3   6    -0.00  -0.00  -0.00    -0.00  -0.00  -0.00     0.00  -0.00   0.00
     4   6    -0.00   0.00  -0.00     0.00  -0.00   0.00    -0.00  -0.00  -0.00
     5   6    -0.00   0.00   0.00     0.00  -0.00  -0.00     0.00   0.00  -0.00
     6   6    -0.00   0.00  -0.00    -0.00   0.00  -0.00     0.00   0.00  -0.00
     7   6     0.00  -0.00  -0.00    -0.00   0.00   0.00    -0.00  -0.00  -0.00
     8   6    -0.00  -0.00  -0.00     0.00   0.00   0.00    -0.00   0.00   0.00
     9   6    -0.05  -0.02  -0.01     0.05   0.02   0.01    -0.02   0.02  -0.05
    10   6    -0.05   0.02  -0.01    -0.05   0.02  -0.01     0.02   0.02   0.05
    11   1    -0.00  -0.00  -0.00    -0.00  -0.00  -0.00    -0.00   0.00  -0.00
    12   1     0.00   0.00  -0.00     0.00   0.00  -0.00     0.00  -0.00  -0.01
    13   1     0.00   0.01  -0.00     0.00   0.02  -0.00     0.00   0.03  -0.01
    14   1     0.00  -0.01  -0.00    -0.00   0.01   0.00    -0.00   0.03   0.01
    15   1     0.00  -0.00  -0.00    -0.00   0.00   0.00    -0.00  -0.00   0.01
    16   1    -0.00  -0.00   0.01    -0.00  -0.00   0.01    -0.01  -0.01   0.02
    17   1    -0.00   0.00  -0.00     0.00  -0.00   0.00     0.00   0.00   0.00
    18   1    -0.00   0.00   0.01     0.00  -0.00  -0.01     0.01  -0.01  -0.02
    19   1     0.65   0.25   0.22    -0.59  -0.23  -0.20     0.06   0.03   0.01
    20   1    -0.04   0.03  -0.08     0.03  -0.03   0.07     0.15  -0.30   0.61
    21   1     0.59  -0.23   0.20     0.65  -0.25   0.22    -0.06   0.03  -0.01
    22   1    -0.03  -0.03  -0.07    -0.03  -0.03  -0.08    -0.15  -0.30  -0.61
                     52                     53                     54
                      A                      A                      A
 Frequencies --   3093.7083              3185.6174              3189.6023
 Red. masses --      1.0878                 1.0890                 1.0874
 Frc consts  --      6.1342                 6.5112                 6.5177
 IR Inten    --     35.0133                 2.9641                 0.0999
  Atom  AN      X      Y      Z        X      Y      Z        X      Y      Z
     1   6    -0.00  -0.00  -0.00     0.00  -0.02  -0.01     0.00  -0.04  -0.01
     2   6    -0.00  -0.00   0.00    -0.01   0.00   0.02    -0.01   0.00   0.02
     3   6    -0.00   0.00  -0.00     0.01   0.05  -0.02     0.01   0.03  -0.01
     4   6    -0.00  -0.00  -0.00     0.01  -0.05  -0.02    -0.01   0.03   0.01
     5   6    -0.00   0.00   0.00    -0.01  -0.00   0.02     0.01   0.00  -0.02
     6   6    -0.00  -0.00   0.00     0.01   0.01  -0.01     0.01   0.01  -0.01
     7   6    -0.00   0.00  -0.00     0.00   0.02  -0.01    -0.00  -0.04   0.01
     8   6    -0.00   0.00   0.00     0.01  -0.01  -0.01    -0.01   0.01   0.01
     9   6    -0.02   0.02  -0.05    -0.00  -0.00   0.00     0.00  -0.00  -0.00
    10   6    -0.02  -0.02  -0.05    -0.00   0.00   0.00    -0.00  -0.00   0.00
    11   1    -0.00   0.00   0.00    -0.01   0.25   0.07    -0.02   0.45   0.13
    12   1     0.00  -0.00  -0.00     0.10  -0.02  -0.20     0.10  -0.02  -0.20
    13   1     0.00  -0.01   0.00    -0.11  -0.55   0.21    -0.07  -0.37   0.14
    14   1     0.00   0.01   0.00    -0.11   0.55   0.21     0.07  -0.37  -0.14
    15   1     0.00   0.00  -0.00     0.10   0.02  -0.20    -0.10  -0.02   0.20
    16   1     0.01   0.01  -0.02    -0.06  -0.07   0.10    -0.12  -0.13   0.17
    17   1    -0.00  -0.00   0.00    -0.01  -0.25   0.07     0.02   0.45  -0.13
    18   1     0.01  -0.01  -0.02    -0.06   0.07   0.10     0.12  -0.13  -0.17
    19   1     0.07   0.03   0.01     0.01   0.00   0.00    -0.01  -0.00  -0.00
    20   1     0.15  -0.30   0.61    -0.00   0.00  -0.01    -0.00  -0.00   0.01
    21   1     0.07  -0.03   0.01     0.01  -0.00   0.00     0.01  -0.00   0.00
    22   1     0.15   0.30   0.61    -0.00  -0.00  -0.01     0.00  -0.00  -0.01
                     55                     56                     57
                      A                      A                      A
 Frequencies --   3190.3799              3192.9484              3215.0456
 Red. masses --      1.0901                 1.0905                 1.0978
 Frc consts  --      6.5374                 6.5501                 6.6859
 IR Inten    --      4.0277                31.5172                22.2086
  Atom  AN      X      Y      Z        X      Y      Z        X      Y      Z
     1   6    -0.00   0.05   0.01     0.00  -0.03  -0.01    -0.00   0.02   0.01
     2   6     0.00  -0.00  -0.00     0.00   0.00  -0.01     0.01  -0.00  -0.02
     3   6     0.01   0.03  -0.01    -0.01  -0.04   0.02     0.00   0.01  -0.00
     4   6     0.01  -0.03  -0.01     0.01  -0.04  -0.02     0.00  -0.01  -0.00
     5   6     0.00   0.00  -0.00    -0.00   0.00   0.01     0.01   0.00  -0.02
     6   6    -0.01  -0.01   0.01     0.01   0.01  -0.01     0.02   0.03  -0.04
     7   6    -0.00  -0.05   0.01    -0.00  -0.03   0.01    -0.00  -0.02   0.01
     8   6    -0.01   0.01   0.01    -0.01   0.01   0.01     0.03  -0.03  -0.04
     9   6    -0.00  -0.00   0.00    -0.00  -0.00   0.00    -0.00   0.00  -0.00
    10   6    -0.00   0.00   0.00     0.00  -0.00  -0.00    -0.00  -0.00  -0.00
    11   1     0.02  -0.54  -0.16    -0.02   0.38   0.11     0.01  -0.21  -0.06
    12   1    -0.02   0.01   0.03    -0.04   0.00   0.07    -0.11   0.02   0.22
    13   1    -0.06  -0.29   0.11     0.10   0.49  -0.19    -0.01  -0.05   0.02
    14   1    -0.06   0.29   0.11    -0.10   0.49   0.19    -0.01   0.06   0.02
    15   1    -0.02  -0.01   0.03     0.04   0.00  -0.07    -0.13  -0.03   0.25
    16   1     0.13   0.15  -0.19    -0.10  -0.11   0.14    -0.27  -0.31   0.40
    17   1     0.02   0.55  -0.16     0.02   0.38  -0.11     0.01   0.24  -0.07
    18   1     0.13  -0.15  -0.19     0.10  -0.11  -0.14    -0.30   0.34   0.45
    19   1     0.01   0.00   0.00     0.01   0.00   0.00    -0.00  -0.00  -0.00
    20   1    -0.00   0.01  -0.01    -0.01   0.01  -0.03     0.01  -0.01   0.02
    21   1     0.01  -0.00   0.00    -0.01   0.00  -0.00    -0.00   0.00  -0.00
    22   1    -0.00  -0.01  -0.01     0.01   0.01   0.03     0.00   0.01   0.02
                     58                     59                     60
                      A                      A                      A
 Frequencies --   3215.0777              3227.5039              3227.7662
 Red. masses --      1.0981                 1.1016                 1.1018
[...]
 69690,0.00031943,0.00079749,-0.00787800,0.05162422,-0.00159378,0.00550
 601,-0.00419487,-0.12950759,0.02509421,-0.27580296,-0.00696120,-0.0036
 3676,-0.00607186,0.00014376,-0.00014710,-0.00025609,-0.00047076,0.0004
 5925,-0.00021526,-0.00198404,-0.00050743,-0.00084673,-0.00004567,-0.00
 012642,0.00062409,0.00096828,-0.00063424,-0.00074804,-0.00045468,-0.00
 033883,-0.00031378,-0.00216095,0.00131742,0.00086674,0.00052743,-0.000
 46426,-0.00021992,0.14071059,-0.02781996,0.28755587,0.00562364,0.00065
 934,0.00005805,0.00226977,-0.00264175,0.00238063,-0.04324105,-0.041194
 18,-0.03417843,-0.00648572,0.00706944,0.00866639,-0.00111940,-0.003825
 68,-0.00092099,-0.00248257,0.00199805,-0.00404870,-0.00084326,0.001007
 44,-0.00150423,-0.00050905,0.00111015,0.00125880,0.00127086,0.00055985
 ,0.00078820,-0.00181339,-0.01717643,-0.00218737,0.00046951,-0.00010178
 ,0.00007452,-0.00269977,0.00018996,0.00189901,0.04691558,0.00035993,-0
 .00383301,0.00239018,-0.00536896,-0.01342240,-0.01352300,-0.04878784,-
 0.29675981,-0.08956416,-0.00015126,-0.00034414,-0.00006568,-0.00001201
 ,0.00016870,-0.00007188,0.00072281,-0.00023270,0.00079956,-0.00004047,
 0.00041272,-0.00002748,-0.00018776,-0.00007652,0.00032255,-0.00003918,
 -0.00011440,-0.00021869,0.00201123,0.00222152,0.00215276,-0.00096350,-
 0.00055382,-0.00050242,0.00020756,0.00065690,0.00037773,0.05315761,0.3
 1077230,-0.00366262,0.00280246,-0.00248409,0.00465664,0.01985245,0.009
 99785,-0.03456280,-0.09797219,-0.07873843,0.00392153,-0.00472151,-0.00
 516205,0.00049902,0.00190404,0.00056122,-0.00310201,-0.00138117,-0.002
 81622,0.00026142,-0.00031895,0.00038561,0.00024006,0.00008289,-0.00061
 095,-0.00094708,-0.00018358,0.00005182,0.00339457,-0.01721020,-0.00317
 961,0.00045661,0.00067161,0.00067657,0.00176955,-0.00138052,-0.0006908
 3,0.02876448,0.09800014,0.08004213,-0.00084334,-0.00100769,-0.00150427
 ,-0.00111935,0.00382565,-0.00092140,-0.00648581,-0.00706863,0.00866722
 ,-0.04324290,0.04119518,-0.03418441,0.00226976,0.00264216,0.00238025,-
 0.00050912,-0.00111014,0.00125903,0.00562354,-0.00065914,0.00005801,-0
 .00248261,-0.00199838,-0.00404846,-0.00181370,0.01717625,-0.00218915,0
 .00127084,-0.00055978,0.00078829,0.00013700,-0.00002741,-0.00014191,0.
 00013091,0.00000436,-0.00001505,0.00067662,-0.00023465,-0.00007678,0.0
 4691819,0.00004048,0.00041274,0.00002746,0.00001203,0.00016856,0.00007
 190,0.00015157,-0.00034376,0.00006536,0.04878877,-0.29673788,0.0895852
 1,0.00536984,-0.01342300,0.01352534,0.00018780,-0.00007657,-0.00032259
 ,-0.00036017,-0.00383356,-0.00239004,-0.00072318,-0.00023267,-0.000799
 88,-0.00201097,0.00222329,-0.00215331,0.00003913,-0.00011439,0.0002187
 3,-0.00005439,0.00004977,0.00002513,0.00003969,0.00000514,-0.00006135,
 0.00023466,0.00064134,0.00001382,-0.05315946,0.31074926,0.00026146,0.0
 0031900,0.00038564,0.00049900,-0.00190410,0.00056145,0.00392168,0.0047
 2116,-0.00516276,-0.03456977,0.09799341,-0.07875699,0.00465647,-0.0198
 5005,0.00999834,0.00024008,-0.00008292,-0.00061098,-0.00366261,-0.0028
 0239,-0.00248349,-0.00310193,0.00138079,-0.00281620,0.00339445,0.01720
 959,-0.00318117,-0.00094715,0.00018360,0.00005179,-0.00008910,-0.00003
 213,0.00004410,-0.00013213,0.00000794,0.00010074,-0.00007681,-0.000013
 95,-0.00039616,0.02877176,-0.09802248,0.08006178,-0.00066460,-0.000682
 19,-0.00187503,0.00100783,0.00182781,0.00052868,-0.00087057,-0.0007885
 1,0.00158569,0.00265307,0.00125694,-0.00134930,-0.09621633,-0.00672389
 ,-0.13094201,-0.00237435,-0.00063901,0.00293275,-0.00413407,-0.0042102
 2,-0.00848476,0.00097258,0.00248416,-0.00118407,0.00458272,0.00006284,
 -0.00346867,0.00005498,-0.00031910,0.00010262,-0.00002987,0.00000780,-
 0.00004315,-0.00016982,0.00005116,0.00002481,0.00013092,-0.00003970,-0
 .00013214,-0.00269973,-0.00020743,0.00176958,0.09835315,0.00015651,-0.
 00005985,-0.00015259,0.00033501,-0.00020190,0.00026985,-0.00016333,-0.
 00014653,-0.00022232,-0.01362452,0.00507142,-0.02099067,-0.00560686,-0
 .05881254,-0.02591053,-0.00037560,0.00000863,0.00035387,0.00799308,0.0
 0841874,0.01945507,0.00237662,-0.00401449,0.00271269,0.00157326,-0.003
 85888,-0.00337312,0.00030338,0.00005449,-0.00033504,0.00003217,0.00000
 558,0.00000954,-0.00005115,-0.00003711,0.00000347,-0.00000435,0.000005
 15,-0.00000794,-0.00018983,0.00065701,0.00138042,0.00789304,0.05163015
 ,-0.00004567,0.00012650,0.00062419,-0.00047079,-0.00045933,-0.00021528
 ,0.00014385,0.00014713,-0.00025614,-0.00695997,0.00363556,-0.00606995,
 -0.12950751,-0.02511850,-0.27579602,0.00096846,0.00063425,-0.00074829,
 -0.00159431,-0.00550726,-0.00419607,-0.00198427,0.00050763,-0.00084709
 ,-0.00216110,-0.00131695,0.00086728,-0.00045476,0.00033880,-0.00031378
 ,0.00002087,-0.00002564,0.00000976,0.00002482,-0.00000346,0.00008673,-
 0.00001506,0.00006136,0.00010074,0.00189904,-0.00037784,-0.00069096,0.
 14070992,0.02784625,0.28754826,-0.00067981,-0.00751130,-0.00476428,0.0
 0351161,0.00021367,-0.00500481,-0.00099916,0.00016928,-0.00084472,0.00
 015923,0.00007082,0.00015242,-0.00005218,0.00009149,-0.00034326,-0.102
 67184,-0.07691789,-0.11112637,0.00036329,-0.00023666,0.00020030,-0.000
 00377,-0.00002604,-0.00027697,0.00015877,0.00029699,0.00023236,0.00137
 769,0.00294968,0.00386669,-0.00324837,0.00065808,0.00225043,0.00040006
 ,-0.00096910,-0.00042120,0.00118273,-0.00017147,-0.00104210,-0.0000133
 0,-0.00003194,-0.00004221,0.00000041,-0.00014129,0.00017618,0.10061574
 ,0.00666144,0.01033100,0.00916807,0.00049740,-0.00053664,0.00257880,0.
 00111279,-0.00577085,0.00061138,0.00035158,-0.00013190,-0.00021199,0.0
 0006799,0.00008006,-0.00012798,-0.07650773,-0.13975363,-0.10815200,-0.
 00005406,0.00010096,0.00005639,-0.00009346,-0.00002698,0.00009968,-0.0
 0000679,0.00009235,-0.00003604,-0.01372272,-0.00464824,-0.01803755,-0.
 00011156,0.00028343,-0.00110675,0.00018388,0.00079133,0.00026021,-0.00
 126819,0.00015760,-0.00108369,0.00004520,0.00004490,-0.00006188,-0.000
 07197,-0.00001884,0.00010816,0.08235489,0.13844658,-0.01009740,-0.0174
 2951,-0.00858410,-0.00402330,0.00264165,-0.00175843,0.00061009,0.00192
 819,0.00025656,0.00008164,-0.00002288,-0.00011774,-0.00006714,0.000063
 34,0.00035146,-0.10799923,-0.10434393,-0.18582643,-0.00015283,0.000022
 49,-0.00012980,0.00002111,0.00009897,0.00016444,-0.00006667,-0.0001607
 9,-0.00010684,0.00314826,0.00304722,0.00260966,0.00246383,0.00017933,-
 0.00064163,-0.00074131,-0.00080229,-0.00017999,-0.00047397,0.00009232,
 0.00101597,-0.00001083,0.00002310,0.00004492,-0.00005321,0.00002341,0.
 00003350,0.11754053,0.11552126,0.19245041,0.00005676,0.00001413,0.0002
 1233,0.00005613,-0.00019695,0.00015070,0.00020654,-0.00044400,-0.00045
 081,0.00129441,0.00269755,-0.00320662,0.00250170,0.01131373,0.00587204
 ,0.00030239,-0.00003955,-0.00030292,-0.04271478,-0.01040996,-0.0120251
 7,0.00339170,-0.01316112,-0.00225281,0.00608817,0.00011146,-0.00693998
 ,0.00004711,0.00001834,0.00001823,-0.00012786,-0.00006118,0.00011203,-
 0.00002986,-0.00003217,0.00002087,0.00013700,0.00005438,-0.00008910,0.
 00046950,0.00096357,0.00045654,-0.00092032,-0.00069686,0.00052745,-0.0
 0008120,0.00000841,0.00001049,0.03256219,-0.00021344,-0.00013282,-0.00
 012210,-0.00002650,0.00014527,-0.00030933,-0.00023194,0.00007702,0.000
 26526,0.00115308,-0.00288570,0.00149562,-0.00421785,-0.01059633,-0.009
 33428,-0.00011803,0.00017941,0.00036770,-0.00871098,-0.31797014,-0.075
 74806,0.00170917,-0.00380007,0.00171807,0.00108481,0.00014857,-0.00140
 044,0.00004399,-0.00006656,0.00000504,0.00006118,0.00017040,-0.0000938
 2,-0.00000781,0.00000558,0.00002564,0.00002740,0.00004977,0.00003213,0
 .00010180,-0.00055382,-0.00067147,0.00006204,0.00031937,0.00046421,0.0
 0010507,0.00000674,-0.00001038,0.01017169,0.33500814,0.00006744,-0.000
 11014,0.00010786,-0.00003168,-0.00013543,0.00005306,0.00026544,0.00029
 396,-0.00014667,-0.00332313,0.00299683,-0.00095630,0.00222751,0.014234
 46,0.00859362,0.00003857,0.00010627,0.00010281,-0.01208430,-0.07380385
 ,-0.07520148,0.00043116,-0.02487887,0.00172673,-0.00527988,-0.00151967
 ,-0.00135653,-0.00005660,0.00001656,-0.00007478,0.00011202,0.00009380,
 -0.00005584,-0.00004314,-0.00000954,0.00000976,-0.00014191,-0.00002513
 ,0.00004410,0.00007451,0.00050253,0.00067657,0.00086835,-0.00079752,-0
 .00021990,-0.00002095,-0.00001596,-0.00000227,0.01476211,0.08359029,0.
 06754772,0.00036326,0.00023667,0.00020027,-0.00005215,-0.00009156,-0.0
 0034317,0.00015927,-0.00007079,0.00015241,-0.00099902,-0.00016923,-0.0
 0084458,0.00351154,-0.00021429,-0.00500489,-0.00000376,0.00002601,-0.0
 0027693,-0.00068014,0.00751100,-0.00476520,-0.10267863,0.07690909,-0.1
 1113715,0.00137747,-0.00294912,0.00386644,0.00015879,-0.00029699,0.000
 23237,-0.00008119,-0.00010507,-0.00002094,0.00000041,0.00014130,0.0001
 7615,-0.00001330,0.00003193,-0.00004221,0.00118264,0.00017137,-0.00104
 213,0.00040000,0.00096910,-0.00042130,0.00001329,0.00000795,0.00000263
 ,-0.00324830,-0.00065795,0.00225053,0.10062302,0.00005406,0.00010095,-
 0.00005641,-0.00006799,0.00008005,0.00012800,-0.00035154,-0.00013187,0
 .00021197,-0.00111263,-0.00577110,-0.00061078,-0.00049776,-0.00053721,
 -0.00257902,0.00009347,-0.00002699,-0.00009967,-0.00666283,0.01033183,
 -0.00916997,0.07649941,-0.13972881,0.10814323,0.01372334,-0.00464650,0
 .01803822,0.00000678,0.00009236,0.00003603,-0.00000841,0.00000675,0.00
 001596,0.00007195,-0.00001885,-0.00010813,-0.00004520,0.00004490,0.000
 06187,0.00126819,0.00015773,0.00108372,-0.00018396,0.00079141,-0.00026
 032,-0.00000795,0.00001230,0.00000059,0.00011173,0.00028351,0.00110671
 ,-0.08234569,0.13841968,-0.00015283,-0.00002252,-0.00012979,-0.0000671
 5,-0.00006327,0.00035142,0.00008164,0.00002288,-0.00011776,0.00061022,
 -0.00192761,0.00025676,-0.00402329,-0.00264175,-0.00175772,0.00002109,
 -0.00009895,0.00016445,-0.01009715,0.01742722,-0.00858459,-0.10801023,
 0.10433526,-0.18584385,0.00314703,-0.00304642,0.00260815,-0.00006669,0
 .00016079,-0.00010686,0.00001049,0.00001038,-0.00000227,-0.00005322,-0
 .00002340,0.00003350,-0.00001082,-0.00002310,0.00004491,-0.00047409,-0
 .00009224,0.00101590,-0.00074134,0.00080214,-0.00018001,0.00000263,-0.
 00000059,-0.00000279,0.00246387,-0.00017935,-0.00064181,0.11755247,-0.
 11551152,0.19246931,-0.00054033,-0.00000477,-0.00048910,-0.00034011,0.
 00168756,-0.00086439,-0.00202108,-0.00137254,0.00062409,-0.02006392,-0
 .00842375,0.00350043,-0.00000523,0.00212469,-0.00059873,-0.00052151,-0
 .00022366,0.00006037,0.00024020,0.00067145,0.00112968,0.00245442,-0.00
 062738,-0.00075015,-0.23202394,-0.07348788,0.06935780,-0.00019968,-0.0
 0038720,0.00029858,-0.00001879,-0.00009279,-0.00000926,0.00020693,-0.0
 0001812,-0.00009824,0.00032784,-0.00002372,-0.00019924,0.00068166,0.00
 055146,-0.00034553,0.00041307,-0.00006254,-0.00052144,0.00001036,-0.00
 002488,-0.00004971,-0.00020178,-0.00016713,0.00003407,-0.00014727,-0.0
 0062303,-0.00014866,0.25832946,-0.00030938,0.00007887,-0.00035626,-0.0
 0013403,-0.00001295,0.00014284,0.00076088,0.00020646,0.00062766,0.0075
 0297,0.00277626,-0.00121147,-0.00010116,-0.00114001,0.00184685,-0.0000
 5057,-0.00026859,0.00003472,0.00138310,-0.00268812,0.00063852,-0.02835
 302,-0.01607389,0.00560712,-0.07789994,-0.06474335,0.02527481,0.000321
 69,0.00000096,-0.00009117,0.00005064,0.00001558,-0.00001664,0.00009116
 ,-0.00003373,0.00008155,-0.00012883,0.00014386,0.00015728,-0.00032296,
 0.00003952,-0.00020563,-0.00020154,-0.00001740,-0.00001671,-0.00007385
 ,0.00001745,0.00004397,0.00171718,0.00006739,-0.00138041,0.00111096,0.
 00004025,-0.00006984,0.08275399,0.07645167,-0.00048774,-0.00055163,-0.
 00099176,0.00092153,0.00117761,-0.00015032,-0.00045923,-0.00024500,0.0
 0028510,-0.01831946,-0.00807662,0.00323530,0.00051062,-0.00260932,0.00
 004133,-0.00057597,-0.00022726,0.00111678,-0.00342135,0.00185724,-0.00
 302081,0.00264553,0.00368977,0.00025257,0.06653138,0.02217131,-0.06234
 547,0.00025991,-0.00015745,-0.00023256,0.00003054,0.00001101,-0.000034
 29,-0.00022516,0.00003461,0.00039082,-0.00005219,0.00015639,0.00009822
 ,0.00082695,0.00045084,0.00062487,0.00086525,0.00007754,-0.00073518,-0
 .00009085,0.00000904,0.00007042,0.00031654,-0.00003901,-0.00024772,-0.
 00024505,0.00036613,0.00023480,-0.07390677,-0.02732312,0.07048213,0.00
 004344,-0.00012357,0.00017092,-0.00098103,-0.00044449,-0.00027749,-0.0
 0111770,-0.00082833,-0.00167755,0.00327304,-0.01196614,-0.01654580,-0.
 00313440,0.00252305,-0.00387999,0.00014942,0.00022575,-0.00001386,0.00
 178964,-0.00011514,0.00087800,-0.00251693,-0.00251595,0.00077309,-0.05
 155351,0.02872617,0.04839708,-0.00033664,0.00018650,0.00023596,0.00000
 806,0.00003536,0.00004044,-0.00026481,-0.00038496,0.00008736,-0.000305
 22,0.00032118,-0.00021532,-0.00017338,0.00029467,0.00045294,-0.0004311
 6,-0.00111895,-0.00032354,0.00012815,0.00000797,-0.00004284,0.00022123
 ,-0.00022606,-0.00018126,-0.00002443,0.00006113,0.00004857,-0.00646342
 ,0.01170299,0.02495223,0.06167362,-0.00021470,-0.00025417,-0.00038486,
 -0.00018617,0.00000355,-0.00032680,0.00024958,0.00061459,0.00065976,-0
 .00375489,0.00351807,0.00674365,0.00257120,-0.00043000,0.00091351,-0.0
 0003948,-0.00015105,0.00026655,0.00057451,-0.00608582,0.00030636,0.004
 94008,-0.00931492,-0.02864882,0.02658896,-0.09437938,-0.10015188,0.000
 21517,-0.00007944,-0.00014677,0.00002030,0.00002069,-0.00000985,-0.000
 31458,-0.00021000,0.00046155,0.00001228,0.00006940,0.00016660,-0.00003
 719,-0.00004682,-0.00030875,0.00019833,0.00044940,-0.00024086,-0.00006
 102,0.00000528,0.00007069,-0.00206946,-0.00049201,-0.00029136,-0.00034
 953,0.00047691,0.00105656,-0.00210039,0.00498715,0.00935896,-0.0262868
 9,0.10121435,0.00005431,-0.00027520,-0.00031757,0.00084369,0.00033444,
 0.00088640,0.00172756,0.00012034,-0.00075866,0.00588332,-0.00893289,-0
 .01400233,-0.00198794,-0.00048250,-0.00292827,0.00045702,-0.00004541,0
 .00066446,0.00015714,0.00199084,-0.00179622,-0.00123925,0.00175293,0.0
 0554975,0.04563767,-0.10063157,-0.25091776,0.00017305,0.00044751,-0.00
 030160,0.00005182,0.00003833,-0.00002771,-0.00000712,0.00012513,0.0004
 2618,-0.00054974,0.00045755,0.00051369,-0.00055679,0.00032424,-0.00007
 940,-0.00088171,-0.00098485,0.00018121,-0.00016512,0.00004672,0.000115
 63,0.00026184,-0.00000636,0.00010304,-0.00003373,-0.00074086,0.0000021
 8,0.00315761,-0.00388286,-0.00899568,-0.05291003,0.11040900,0.27162929
 ,0.00024033,-0.00067122,0.00112985,-0.00000520,-0.00212480,-0.00059848
 ,-0.02006387,0.00842337,0.00349936,-0.00202115,0.00137261,0.00062397,-
 0.00034013,-0.00168764,-0.00086424,0.00245350,0.00062782,-0.00075001,-
 0.00054033,0.00000468,-0.00048906,-0.00052148,0.00022365,0.00006031,-0
 .00019970,0.00038723,0.00029857,-0.23203069,0.07349041,0.06935078,-0.0
 0020174,0.00016712,0.00003401,0.00041307,0.00006249,-0.00052144,0.0006
 8164,-0.00055147,-0.00034549,0.00032785,0.00002371,-0.00019926,0.00020
 694,0.00001812,-0.00009825,-0.00014725,0.00062301,-0.00014873,-0.00001
 880,0.00009279,-0.00000927,0.00001036,0.00002488,-0.00004972,-0.000088
 43,0.00011918,-0.00005713,-0.00002845,0.00003016,-0.00012428,0.2583368
 3,-0.00138326,-0.00268832,-0.00063850,0.00010124,-0.00114000,-0.001846
 74,-0.00750542,0.00277715,0.00121149,-0.00076097,0.00020640,-0.0006276
 8,0.00013413,-0.00001312,-0.00014285,0.02835375,-0.01607401,-0.0056053
 5,0.00030936,0.00007896,0.00035615,0.00005053,-0.00026859,-0.00003460,
 -0.00032168,0.00000099,0.00009116,0.07790222,-0.06474335,-0.02527200,-
 0.00171716,0.00006750,0.00138031,0.00020163,-0.00001740,0.00001663,0.0
 0032306,0.00003947,0.00020567,0.00012883,0.00014384,-0.00015730,-0.000
 09119,-0.00003375,-0.00008151,-0.00111099,0.00004021,0.00006984,-0.000
 05064,0.00001558,0.00001663,0.00007384,0.00001745,-0.00004397,-0.00011
 919,0.00009580,-0.00008577,-0.00006055,0.00005684,-0.00001305,-0.08275
 651,0.07645200,-0.00342118,-0.00185735,-0.00302061,0.00051047,0.002609
 51,0.00004126,-0.01831913,0.00807617,0.00323428,-0.00045918,0.00024504
 ,0.00028514,0.00092153,-0.00117766,-0.00015020,0.00264302,-0.00368823,
 0.00025344,-0.00048775,0.00055152,-0.00099183,-0.00057592,0.00022736,0
 .00111673,0.00025992,0.00015743,-0.00023258,0.06652382,-0.02216860,-0.
 06233990,0.00031670,0.00003898,-0.00024784,0.00086527,-0.00007761,-0.0
 0073517,0.00082693,-0.00045078,0.00062488,-0.00005220,-0.00015640,0.00
 009826,-0.00022515,-0.00003458,0.00039084,-0.00024494,-0.00036611,0.00
 023482,0.00003055,-0.00001102,-0.00003429,-0.00009086,-0.00000904,0.00
 007043,-0.00005712,0.00008575,-0.00005870,-0.00001958,0.00004527,-0.00
 001987,-0.07389881,0.02731987,0.07047584,0.00178966,0.00011545,0.00087
 803,-0.00313421,-0.00252351,-0.00387972,0.00327270,0.01196455,-0.01654
 655,-0.00111777,0.00082816,-0.00167766,-0.00098103,0.00044448,-0.00027
 756,-0.00251692,0.00251623,0.00077201,0.00004343,0.00012357,0.00017091
 ,0.00014943,-0.00022575,-0.00001384,-0.00033665,-0.00018648,0.00023599
 ,-0.05155287,-0.02872118,0.04839855,0.00022119,0.00022606,-0.00018130,
 -0.00043115,0.00111889,-0.00032367,-0.00017336,-0.00029462,0.00045298,
 -0.00030527,-0.00032121,-0.00021533,-0.00026488,0.00038500,0.00008735,
 -0.00002444,-0.00006115,0.00004861,0.00000806,-0.00003535,0.00004044,0
 .00012815,-0.00000797,-0.00004285,-0.00002845,0.00006055,-0.00001958,0
 .00004449,0.00001374,0.00005068,-0.00646334,-0.01170103,0.02495362,0.0
 6167325,-0.00057429,-0.00608610,-0.00030591,-0.00257145,-0.00043014,-0
 .00091390,0.00375555,0.00351871,-0.00674575,-0.00024945,0.00061449,-0.
 00065993,0.00018622,0.00000353,0.00032693,-0.00494021,-0.00931236,0.02
 865015,0.00021474,-0.00025411,0.00038483,0.00003952,-0.00015108,-0.000
 26648,-0.00021516,-0.00007947,0.00014676,-0.02658420,-0.09436219,0.100
 13816,0.00206946,-0.00049192,0.00029149,-0.00019844,0.00044954,0.00024
 082,0.00003714,-0.00004682,0.00030877,-0.00001236,0.00006935,-0.000166
 57,0.00031459,-0.00021007,-0.00046149,0.00034953,0.00047688,-0.0010565
 9,-0.00002029,0.00002069,0.00000984,0.00006100,0.00000527,-0.00007068,
 -0.00003017,0.00005683,-0.00004528,-0.00001373,0.00002739,-0.00005148,
 0.00210042,0.00498634,-0.00935952,0.02628159,0.10119522,0.00015728,-0.
 00199040,-0.00179598,-0.00198775,0.00048218,-0.00292828,0.00588301,0.0
 0893153,-0.01400253,0.00172755,-0.00012038,-0.00075857,0.00084367,-0.0
 0033440,0.00088641,-0.00123878,-0.00175155,0.00554719,0.00005431,0.000
 27520,-0.00031766,0.00045701,0.00004549,0.00066446,0.00017308,-0.00044
 755,-0.00030158,0.04563882,0.10061783,-0.25093595,0.00026162,0.0000064
 3,0.00010303,-0.00088171,0.00098482,0.00018107,-0.00055677,-0.00032426
 ,-0.00007938,-0.00054973,-0.00045752,0.00051375,-0.00000712,-0.0001250
 9,0.00042616,-0.00003378,0.00074081,0.00000222,0.00005182,-0.00003834,
 -0.00002771,-0.00016513,-0.00004671,0.00011565,-0.00012428,0.00001304,
 -0.00001986,0.00005068,0.00005149,0.00007324,0.00315731,0.00388155,-0.
 00899494,-0.05291111,-0.11039417,0.27164926\\0.00054534,0.00086791,0.0
 0124942,0.00325518,-0.00117915,-0.00158272,0.01072530,-0.00059110,-0.0
 0807381,-0.01072539,-0.00059081,0.00807428,-0.00325517,-0.00117936,0.0
 0158357,0.00257396,0.00040092,-0.00105434,-0.00054571,0.00086796,-0.00
 124988,-0.00257352,0.00040105,0.00105385,-0.00166827,0.00035415,0.0012
 5666,0.00166785,0.00035414,-0.00125638,-0.00018657,0.00008872,0.000210
 03,-0.00003739,0.00004127,0.00005101,0.00017037,-0.00004997,-0.0001528
 8,-0.00017042,-0.00004955,0.00015266,0.00003723,0.00004118,-0.00005129
 ,0.00015694,-0.00001076,-0.00001293,0.00018654,0.00008856,-0.00021002,
 -0.00015675,-0.00001089,0.00001310,-0.00033959,0.00002853,-0.00051075,
 0.00035453,0.00004942,0.00021801,0.00034012,0.00002837,0.00051054,-0.0
 0035460,0.00004940,-0.00021815\\\@


 THERE IS NO SUBJECT, HOWEVER COMPLEX,
 WHICH, IF STUDIED WITH PATIENCE AND INTELLIGIENCE
 WILL NOT BECOME
 MORE COMPLEX
                        QUOTED BY D. GORDON ROHMAN
 Job cpu time:       0 days  1 hours  4 minutes 54.5 seconds.
 Elapsed time:       0 days  0 hours  0 minutes 41.6 seconds.
 File lengths (MBytes):  RWF=    182 Int=      0 D2E=      0 Chk=     10 Scr=      1
 Normal termination of Gaussian 16 at Mon Jul 28 00:13:11 2025.
