 Entering Gaussian System, Link 0=g16
 Initial command:
 /home/hongchang/software/g16/l1.exe "/home/hongchang/software/g16/scratch/Gau-122353.inp" -scrdir="/home/hongchang/software/g16/scratch/"
 Entering Link 1 = /home/hongchang/software/g16/l1.exe PID=    122354.
  
 Copyright (c) 1988,1990,1992,1993,1995,1998,2003,2009,2016,
            Gaussian, Inc.  All Rights Reserved.
  
 This is part of the Gaussian(R) 16 program.  It is based on
 the Gaussian(R) 09 system (copyright 2009, Gaussian, Inc.),
 the Gaussian(R) 03 system (copyright 2003, Gaussian, Inc.),
 the Gaussian(R) 98 system (copyright 1998, Gaussian, Inc.),
 the Gaussian(R) 94 system (copyright 1995, Gaussian, Inc.),
 the Gaussian 92(TM) system (copyright 1992, Gaussian, Inc.),
 the Gaussian 90(TM) system (copyright 1990, Gaussian, Inc.),
 the Gaussian 88(TM) system (copyright 1988, Gaussian, Inc.),
 the Gaussian 86(TM) system (copyright 1986, Carnegie Mellon
 University), and the Gaussian 82(TM) system (copyright 1983,
 Carnegie Mellon University). Gaussian is a federally registered
 trademark of Gaussian, Inc.
  
 This software contains proprietary and confidential information,
 including trade secrets, belonging to Gaussian, Inc.
  
 This software is provided under written license and may be
 used, copied, transmitted, or stored only in accord with that
 written license.
  
 The following legend is applicable only to US Government
 contracts under FAR:
  
                    RESTRICTED RIGHTS LEGEND
  
 Use, reproduction and disclosure by the US Government is
 subject to restrictions as set forth in subparagraphs (a)
 and (c) of the Commercial Computer Software - Restricted
 Rights clause in FAR 52.227-19.
  
 Gaussian, Inc.
 340 Quinnipiac St., Bldg. 40, Wallingford CT 06492
  
  
 ---------------------------------------------------------------
 Warning -- This program may not be used in any manner that
 competes with the business of Gaussian, Inc. or will provide
 assistance to any competitor of Gaussian, Inc.  The licensee
 of this program is prohibited from giving any competitor of
 Gaussian, Inc. access to this program.  By using this program,
 the user acknowledges that Gaussian, Inc. is engaged in the
 business of creating and licensing software in the field of
 computational chemistry and represents and warrants to the
 licensee that it is not a competitor of Gaussian, Inc. and that
 it will not use this program in any manner prohibited above.
 ---------------------------------------------------------------
  

 Cite this work as:
 Gaussian 16, Revision A.03,
 M. J. Frisch, G. W. Trucks, H. B. Schlegel, G. E. Scuseria, 
 M. A. Robb, J. R. Cheeseman, G. Scalmani, V. Barone, 
 G. A. Petersson, H. Nakatsuji, X. Li, M. Caricato, A. V. Marenich, 
 J. Bloino, B. G. Janesko, R. Gomperts, B. Mennucci, H. P. Hratchian, 
 J. V. Ortiz, A. F. Izmaylov, J. L. Sonnenberg, D. Williams-Young, 
 F. Ding, F. Lipparini, F. Egidi, J. Goings, B. Peng, A. Petrone, 
 T. Henderson, D. Ranasinghe, V. G. Zakrzewski, J. Gao, N. Rega, 
 G. Zheng, W. Liang, M. Hada, M. Ehara, K. Toyota, R. Fukuda, 
 J. Hasegawa, M. Ishida, T. Nakajima, Y. Honda, O. Kitao, H. Nakai, 
 T. Vreven, K. Throssell, J. A. Montgomery, Jr., J. E. Peralta, 
 F. Ogliaro, M. J. Bearpark, J. J. Heyd, E. N. Brothers, K. N. Kudin, 
 V. N. Staroverov, T. A. Keith, R. Kobayashi, J. Normand, 
 K. Raghavachari, A. P. Rendell, J. C. Burant, S. S. Iyengar, 
 J. Tomasi, M. Cossi, J. M. Millam, M. Klene, C. Adamo, R. Cammi, 
 J. W. Ochterski, R. L. Martin, K. Morokuma, O. Farkas, 
 J. B. Foresman, and D. J. Fox, Gaussian, Inc., Wallingford CT, 2016.
 
 ******************************************
 Gaussian 16:  ES64L-G16RevA.03 25-Dec-2016
                23-Jul-2025 
 ******************************************
 %nproc=128
 Will use up to  128 processors via shared memory.
 %mem=1024GB
 %chk=01.chk
 ---------------------------------------------------------------
 # opt freq b3lyp/6-311g(d,p) em=gd3bj scrf(solvent=Cis-Decalin)
 ---------------------------------------------------------------
 1/18=20,19=15,26=3,38=1/1,3;
 2/9=110,12=2,17=6,18=5,40=1/2;
 3/5=4,6=6,7=101,11=2,25=1,30=1,70=2201,71=1,72=99,74=-5,124=41/1,2,3;
 4//1;
 5/5=2,38=5,53=99/2;
 6/7=2,8=2,9=2,10=2,28=1/1;
 7//1,2,3,16;
 1/18=20,19=15,26=3/3(2);
 2/9=110/2;
 99//99;
 2/9=110/2;
 3/5=4,6=6,7=101,11=2,25=1,30=1,70=2205,71=1,72=99,74=-5,124=41/1,2,3;
 4/5=5,16=3,69=1/1;
 5/5=2,38=5,53=99/2;
 7//1,2,3,16;
 1/18=20,19=15,26=3/3(-5);
 2/9=110/2;
 6/7=2,8=2,9=2,10=2,19=2,28=1/1;
 99/9=1/99;
 --
 01
 --
 Symbolic Z-matrix:
 Charge =  0 Multiplicity = 1
 C                    -1.18063  -0.28231  -0.00007 
 C                    -0.73499   0.99088  -0.00014 
 C                     0.73437   0.99132  -0.00005 
 C                     1.18078  -0.2816    0.00001 
 H                    -2.21269  -0.61141  -0.00007 
 H                    -1.34784   1.8857   -0.00025 
 H                     1.34663   1.88655  -0.00005 
 H                     2.21306  -0.61001   0.00003 
 C                     0.00038  -1.21646   0.00014 
 H                     0.00053  -1.88056   0.87754 
 H                     0.00059  -1.8809   -0.877 
 

 GradGradGradGradGradGradGradGradGradGradGradGradGradGradGradGradGradGrad
 Berny optimization.
 Initialization pass.
                           ----------------------------
                           !    Initial Parameters    !
                           ! (Angstroms and Degrees)  !
 --------------------------                            --------------------------
 ! Name  Definition              Value          Derivative Info.                !
 --------------------------------------------------------------------------------
 ! R1    R(1,2)                  1.3489         estimate D2E/DX2                !
 ! R2    R(1,5)                  1.0833         estimate D2E/DX2                !
 ! R3    R(1,9)                  1.5058         estimate D2E/DX2                !
 ! R4    R(2,3)                  1.4694         estimate D2E/DX2                !
 ! R5    R(2,6)                  1.0846         estimate D2E/DX2                !
 ! R6    R(3,4)                  1.3489         estimate D2E/DX2                !
 ! R7    R(3,7)                  1.0846         estimate D2E/DX2                !
 ! R8    R(4,8)                  1.0833         estimate D2E/DX2                !
 ! R9    R(4,9)                  1.5058         estimate D2E/DX2                !
 ! R10   R(9,10)                 1.1004         estimate D2E/DX2                !
 ! R11   R(9,11)                 1.1004         estimate D2E/DX2                !
 ! A1    A(2,1,5)              126.977          estimate D2E/DX2                !
 ! A2    A(2,1,9)              109.052          estimate D2E/DX2                !
 ! A3    A(5,1,9)              123.971          estimate D2E/DX2                !
 ! A4    A(1,2,3)              109.3084         estimate D2E/DX2                !
 ! A5    A(1,2,6)              126.3021         estimate D2E/DX2                !
 ! A6    A(3,2,6)              124.3895         estimate D2E/DX2                !
 ! A7    A(2,3,4)              109.3084         estimate D2E/DX2                !
 ! A8    A(2,3,7)              124.3864         estimate D2E/DX2                !
 ! A9    A(4,3,7)              126.3052         estimate D2E/DX2                !
 ! A10   A(3,4,8)              126.974          estimate D2E/DX2                !
 ! A11   A(3,4,9)              109.0533         estimate D2E/DX2                !
 ! A12   A(8,4,9)              123.9727         estimate D2E/DX2                !
 ! A13   A(1,9,4)              103.2779         estimate D2E/DX2                !
 ! A14   A(1,9,10)             112.0002         estimate D2E/DX2                !
 ! A15   A(1,9,11)             112.0016         estimate D2E/DX2                !
 ! A16   A(4,9,10)             112.0033         estimate D2E/DX2                !
 ! A17   A(4,9,11)             112.0042         estimate D2E/DX2                !
 ! A18   A(10,9,11)            105.7342         estimate D2E/DX2                !
 ! D1    D(5,1,2,3)            179.9972         estimate D2E/DX2                !
 ! D2    D(5,1,2,6)             -0.002          estimate D2E/DX2                !
 ! D3    D(9,1,2,3)              0.002          estimate D2E/DX2                !
 ! D4    D(9,1,2,6)           -179.9972         estimate D2E/DX2                !
 ! D5    D(2,1,9,4)             -0.0061         estimate D2E/DX2                !
 ! D6    D(2,1,9,10)           120.6928         estimate D2E/DX2                !
 ! D7    D(2,1,9,11)          -120.7069         estimate D2E/DX2                !
 ! D8    D(5,1,9,4)            179.9986         estimate D2E/DX2                !
 ! D9    D(5,1,9,10)           -59.3025         estimate D2E/DX2                !
 ! D10   D(5,1,9,11)            59.2978         estimate D2E/DX2                !
 ! D11   D(1,2,3,4)              0.0035         estimate D2E/DX2                !
 ! D12   D(1,2,3,7)           -179.9977         estimate D2E/DX2                !
 ! D13   D(6,2,3,4)           -179.9973         estimate D2E/DX2                !
 ! D14   D(6,2,3,7)              0.0015         estimate D2E/DX2                !
 ! D15   D(2,3,4,8)            179.9962         estimate D2E/DX2                !
 ! D16   D(2,3,4,9)             -0.0074         estimate D2E/DX2                !
 ! D17   D(7,3,4,8)             -0.0025         estimate D2E/DX2                !
 ! D18   D(7,3,4,9)            179.9938         estimate D2E/DX2                !
 ! D19   D(3,4,9,1)              0.0083         estimate D2E/DX2                !
 ! D20   D(3,4,9,10)          -120.6885         estimate D2E/DX2                !
 ! D21   D(3,4,9,11)           120.7072         estimate D2E/DX2                !
 ! D22   D(8,4,9,1)           -179.9952         estimate D2E/DX2                !
 ! D23   D(8,4,9,10)            59.308          estimate D2E/DX2                !
 ! D24   D(8,4,9,11)           -59.2963         estimate D2E/DX2                !
 --------------------------------------------------------------------------------
 Trust Radius=3.00D-01 FncErr=1.00D-07 GrdErr=1.00D-06 EigMax=2.50D+02 EigMin=1.00D-04
 Number of steps in this run=     63 maximum allowed number of steps=    100.
 GradGradGradGradGradGradGradGradGradGradGradGradGradGradGradGradGradGrad

                          Input orientation:                          
 ---------------------------------------------------------------------
 Center     Atomic      Atomic             Coordinates (Angstroms)
 Number     Number       Type             X           Y           Z
 ---------------------------------------------------------------------
      1          6           0       -1.180628   -0.282312   -0.000068
      2          6           0       -0.734985    0.990879   -0.000144
      3          6           0        0.734369    0.991323   -0.000047
      4          6           0        1.180780   -0.281595    0.000010
      5          1           0       -2.212689   -0.611405   -0.000066
      6          1           0       -1.347836    1.885698   -0.000246
      7          1           0        1.346630    1.886545   -0.000045
      8          1           0        2.213058   -0.610011    0.000028
      9          6           0        0.000383   -1.216462    0.000137
     10          1           0        0.000527   -1.880559    0.877543
     11          1           0        0.000590   -1.880901   -0.877002
 ---------------------------------------------------------------------
                    Distance matrix (angstroms):
                    1          2          3          4          5
     1  C    0.000000
     2  C    1.348930   0.000000
     3  C    2.299861   1.469354   0.000000
     4  C    2.361408   2.299858   1.348927   0.000000
     5  H    1.083260   2.179661   3.354681   3.409458   0.000000
     6  H    2.174448   1.084568   2.266161   3.330324   2.642630
     7  H    3.330311   2.266129   1.084567   2.174474   4.348391
     8  H    3.409471   3.354669   2.179631   1.083261   4.425747
     9  C    1.505797   2.326611   2.326596   1.505760   2.294293
    10  H    2.172492   3.091354   3.091342   2.172498   2.698013
    11  H    2.172505   3.091451   3.091464   2.172505   2.698007
                    6          7          8          9         10
     6  H    0.000000
     7  H    2.694466   0.000000
     8  H    4.348394   2.642629   0.000000
     9  C    3.382468   3.382460   2.294278   0.000000
    10  H    4.095520   4.095513   2.698077   1.100394   0.000000
    11  H    4.095634   4.095672   2.698028   1.100387   1.754545
                   11
    11  H    0.000000
 Stoichiometry    C5H6
 Framework group  C1[X(C5H6)]
 Deg. of freedom    27
 Full point group                 C1      NOp   1
 Largest Abelian subgroup         C1      NOp   1
 Largest concise Abelian subgroup C1      NOp   1
                         Standard orientation:                         
 ---------------------------------------------------------------------
 Center     Atomic      Atomic             Coordinates (Angstroms)
 Number     Number       Type             X           Y           Z
 ---------------------------------------------------------------------
      1          6           0       -1.180416   -0.283183   -0.000055
      2          6           0       -0.735702    0.990332   -0.000131
      3          6           0        0.733651    0.991848   -0.000034
      4          6           0        1.180991   -0.280744    0.000023
      5          1           0       -2.212237   -0.613029   -0.000053
      6          1           0       -1.349206    1.884704   -0.000233
      7          1           0        1.345259    1.887517   -0.000032
      8          1           0        2.213508   -0.608407    0.000041
      9          6           0        0.001276   -1.216472    0.000150
     10          1           0        0.001905   -1.880568    0.877556
     11          1           0        0.001968   -1.880910   -0.876989
 ---------------------------------------------------------------------
 Rotational constants (GHZ):           8.4481248           8.2186820           4.2752494
 Standard basis: 6-311G(d,p) (5D, 7F)
 There are   131 symmetry adapted cartesian basis functions of A   symmetry.
 There are   126 symmetry adapted basis functions of A   symmetry.
   126 basis functions,   208 primitive gaussians,   131 cartesian basis functions
    18 alpha electrons       18 beta electrons
       nuclear repulsion energy       156.4714700996 Hartrees.
 NAtoms=   11 NActive=   11 NUniq=   11 SFac= 1.00D+00 NAtFMM=   60 NAOKFM=F Big=F
 Integral buffers will be    131072 words long.
 Raffenetti 2 integral format.
 Two-electron integral symmetry is turned on.
 Nuclear repulsion after empirical dispersion term =      156.4566102287 Hartrees.
 ------------------------------------------------------------------------------
 Polarizable Continuum Model (PCM)
 =================================
 Model                : PCM.
 Atomic radii         : UFF (Universal Force Field).
 Polarization charges : Total charges.
 Charge compensation  : None.
 Solution method      : On-the-fly selection.
 Cavity type          : Scaled VdW (van der Waals Surface) (Alpha=1.100).
 Cavity algorithm     : GePol (No added spheres)
                        Default sphere list used, NSphG=   11.
                        Lebedev-Laikov grids with approx.  5.0 points / Ang**2.
                        Smoothing algorithm: York/Karplus (Gamma=1.0000).
                        Polarization charges: spherical gaussians, with
                                              point-specific exponents (IZeta= 3).
                        Self-potential: point-specific (ISelfS= 7).
                        Self-field    : sphere-specific E.n sum rule (ISelfD= 2).
 1st derivatives      : Analytical E(r).r(x)/FMM algorithm (CHGder, D1EAlg=3).
                        Cavity 1st derivative terms included.
 Solvent              : Cis-Decalin, Eps=   2.213900 Eps(inf)=   2.193361
 ------------------------------------------------------------------------------
 Spheres list:
 ISph  on   Nord     Re0    Alpha      Xe            Ye            Ze
    1   C      1    1.9255  1.100     -1.180416     -0.283183     -0.000055
    2   C      2    1.9255  1.100     -0.735702      0.990332     -0.000131
    3   C      3    1.9255  1.100      0.733651      0.991848     -0.000034
    4   C      4    1.9255  1.100      1.180991     -0.280744      0.000023
    5   H      5    1.4430  1.100     -2.212237     -0.613029     -0.000053
    6   H      6    1.4430  1.100     -1.349206      1.884704     -0.000233
    7   H      7    1.4430  1.100      1.345259      1.887517     -0.000032
    8   H      8    1.4430  1.100      2.213508     -0.608407      0.000041
    9   C      9    1.9255  1.100      0.001276     -1.216472      0.000150
   10   H     10    1.4430  1.100      0.001905     -1.880568      0.877556
   11   H     11    1.4430  1.100      0.001968     -1.880910     -0.876989
 ------------------------------------------------------------------------------
 One-electron integrals computed using PRISM.
 NBasis=   126 RedAO= T EigKep=  7.52D-04  NBF=   126
 NBsUse=   126 1.00D-06 EigRej= -1.00D+00 NBFU=   126
 ExpMin= 1.03D-01 ExpMax= 4.56D+03 ExpMxC= 6.82D+02 IAcc=3 IRadAn=         5 AccDes= 0.00D+00
 Harris functional with IExCor=  402 and IRadAn=       5 diagonalized for initial guess.
 HarFok:  IExCor=  402 AccDes= 0.00D+00 IRadAn=         5 IDoV= 1 UseB2=F ITyADJ=14
 ICtDFT=  3500011 ScaDFX=  1.000000  1.000000  1.000000  1.000000
 FoFCou: FMM=F IPFlag=           0 FMFlag=      100000 FMFlg1=           0
         NFxFlg=           0 DoJE=T BraDBF=F KetDBF=T FulRan=T
         wScrn=  0.000000 ICntrl=       500 IOpCl=  0 I1Cent=   200000004 NGrid=           0
         NMat0=    1 NMatS0=      1 NMatT0=    0 NMatD0=    1 NMtDS0=    0 NMtDT0=    0
 Petite list used in FoFCou.
 Keep R1 ints in memory in canonical form, NReq=154187299.
 Requested convergence on RMS density matrix=1.00D-08 within 128 cycles.
 Requested convergence on MAX density matrix=1.00D-06.
 Requested convergence on             energy=1.00D-06.
 No special actions if energy rises.
 Inv3:  Mode=1 IEnd=     2910675.
 Iteration    1 A*A^-1 deviation from unit magnitude is 2.89D-15 for    511.
 Iteration    1 A*A^-1 deviation from orthogonality  is 1.50D-15 for    737    125.
 Iteration    1 A^-1*A deviation from unit magnitude is 2.55D-15 for    719.
 Iteration    1 A^-1*A deviation from orthogonality  is 1.37D-15 for    502    453.
 Error on total polarization charges =  0.00546
 SCF Done:  E(RB3LYP) =  -194.169496678     A.U. after   10 cycles
            NFock= 10  Conv=0.50D-08     -V/T= 2.0049

 **********************************************************************

            Population analysis using the SCF density.

 **********************************************************************

 Orbital symmetries:
       Occupied  (A) (A) (A) (A) (A) (A) (A) (A) (A) (A) (A) (A)
                 (A) (A) (A) (A) (A) (A)
       Virtual   (A) (A) (A) (A) (A) (A) (A) (A) (A) (A) (A) (A)
                 (A) (A) (A) (A) (A) (A) (A) (A) (A) (A) (A) (A)
                 (A) (A) (A) (A) (A) (A) (A) (A) (A) (A) (A) (A)
                 (A) (A) (A) (A) (A) (A) (A) (A) (A) (A) (A) (A)
                 (A) (A) (A) (A) (A) (A) (A) (A) (A) (A) (A) (A)
                 (A) (A) (A) (A) (A) (A) (A) (A) (A) (A) (A) (A)
                 (A) (A) (A) (A) (A) (A) (A) (A) (A) (A) (A) (A)
                 (A) (A) (A) (A) (A) (A) (A) (A) (A) (A) (A) (A)
                 (A) (A) (A) (A) (A) (A) (A) (A) (A) (A) (A) (A)
 The electronic state is 1-A.
 Alpha  occ. eigenvalues --  -10.17659 -10.16793 -10.16766 -10.16664 -10.16661
 Alpha  occ. eigenvalues --   -0.85696  -0.70600  -0.70394  -0.55247  -0.53068
 Alpha  occ. eigenvalues --   -0.51503  -0.43658  -0.40074  -0.37782  -0.36098
 Alpha  occ. eigenvalues --   -0.36051  -0.30376  -0.22354
 Alpha virt. eigenvalues --   -0.02287   0.05343   0.07121   0.08503   0.09083
 Alpha virt. eigenvalues --    0.11042   0.11370   0.11513   0.19013   0.21133
 Alpha virt. eigenvalues --    0.29020   0.29152   0.30391   0.37175   0.38637
 Alpha virt. eigenvalues --    0.38880   0.40413   0.42895   0.43925   0.44354
 Alpha virt. eigenvalues --    0.44479   0.51321   0.51516   0.54457   0.55242
 Alpha virt. eigenvalues --    0.58310   0.59588   0.61779   0.64463   0.66006
 Alpha virt. eigenvalues --    0.66632   0.67209   0.73911   0.75710   0.81666
 Alpha virt. eigenvalues --    0.83414   0.89709   0.96610   0.98507   1.00068
 Alpha virt. eigenvalues --    1.01680   1.09171   1.12805   1.16988   1.37857
 Alpha virt. eigenvalues --    1.41866   1.43153   1.50418   1.50952   1.52672
 Alpha virt. eigenvalues --    1.52815   1.53195   1.54178   1.58446   1.63790
 Alpha virt. eigenvalues --    1.64044   1.72196   1.73165   1.78935   1.80795
 Alpha virt. eigenvalues --    1.80954   1.85556   1.87144   1.88388   1.92675
 Alpha virt. eigenvalues --    1.93776   1.95824   2.07606   2.10487   2.19973
 Alpha virt. eigenvalues --    2.21973   2.26746   2.32020   2.33298   2.36838
 Alpha virt. eigenvalues --    2.40614   2.48941   2.51178   2.53955   2.54753
 Alpha virt. eigenvalues --    2.58324   2.62709   2.65883   2.66432   2.67680
 Alpha virt. eigenvalues --    2.73659   2.74090   2.74321   2.90497   2.98209
 Alpha virt. eigenvalues --    2.98813   3.02321   3.12984   3.29510   3.33510
 Alpha virt. eigenvalues --    3.45527   3.45645   3.74485   4.01268   4.02703
 Alpha virt. eigenvalues --    4.05127   4.12489   4.57489  23.61073  23.79091
 Alpha virt. eigenvalues --   23.87119  24.21554  24.24164
          Condensed to atoms (all electrons):
               1          2          3          4          5          6
     1  C    4.996791   0.620226  -0.076754  -0.113482   0.413374  -0.041665
     2  C    0.620226   4.902576   0.409088  -0.076752  -0.034906   0.416917
     3  C   -0.076754   0.409088   4.902570   0.620231   0.007500  -0.042063
     4  C   -0.113482  -0.076752   0.620231   4.996769   0.004926   0.005597
     5  H    0.413374  -0.034906   0.007500   0.004926   0.550724  -0.005015
     6  H   -0.041665   0.416917  -0.042063   0.005597  -0.005015   0.562640
     7  H    0.005598  -0.042066   0.416917  -0.041662  -0.000315  -0.001559
     8  H    0.004926   0.007501  -0.034909   0.413376  -0.000204  -0.000315
     9  C    0.396345  -0.105447  -0.105445   0.396348  -0.038302   0.009195
    10  H   -0.027651   0.001624   0.001622  -0.027649  -0.000267  -0.000353
    11  H   -0.027658   0.001628   0.001629  -0.027658  -0.000268  -0.000353
               7          8          9         10         11
     1  C    0.005598   0.004926   0.396345  -0.027651  -0.027658
     2  C   -0.042066   0.007501  -0.105447   0.001624   0.001628
     3  C    0.416917  -0.034909  -0.105445   0.001622   0.001629
     4  C   -0.041662   0.413376   0.396348  -0.027649  -0.027658
     5  H   -0.000315  -0.000204  -0.038302  -0.000267  -0.000268
     6  H   -0.001559  -0.000315   0.009195  -0.000353  -0.000353
     7  H    0.562640  -0.005015   0.009195  -0.000353  -0.000353
     8  H   -0.005015   0.550726  -0.038302  -0.000267  -0.000269
     9  C    0.009195  -0.038302   4.889349   0.383193   0.383203
    10  H   -0.000353  -0.000267   0.383193   0.557253  -0.027532
    11  H   -0.000353  -0.000269   0.383203  -0.027532   0.557264
 Mulliken charges:
               1
     1  C   -0.150049
     2  C   -0.100389
     3  C   -0.100386
     4  C   -0.150042
     5  H    0.102753
     6  H    0.096972
     7  H    0.096972
     8  H    0.102752
     9  C   -0.179333
    10  H    0.140380
    11  H    0.140369
 Sum of Mulliken charges =  -0.00000
 Mulliken charges with hydrogens summed into heavy atoms:
               1
     1  C   -0.047295
     2  C   -0.003417
     3  C   -0.003414
     4  C   -0.047290
     9  C    0.101416
 Electronic spatial extent (au):  <R**2>=            332.7915
 Charge=             -0.0000 electrons
 Dipole moment (field-independent basis, Debye):
    X=              0.0005    Y=             -0.5412    Z=              0.0002  Tot=              0.5412
 Quadrupole moment (field-independent basis, Debye-Ang):
   XX=            -28.6529   YY=            -27.0827   ZZ=            -32.9666
   XY=             -0.0015   XZ=              0.0001   YZ=             -0.0005
 Traceless Quadrupole moment (field-independent basis, Debye-Ang):
   XX=              0.9145   YY=              2.4847   ZZ=             -3.3992
   XY=             -0.0015   XZ=              0.0001   YZ=             -0.0005
 Octapole moment (field-independent basis, Debye-Ang**2):
  XXX=              0.0010  YYY=              1.8350  ZZZ=              0.0014  XYY=             -0.0028
  XXY=             -0.3601  XXZ=             -0.0002  XZZ=              0.0029  YZZ=             -2.7699
  YYZ=             -0.0002  XYZ=              0.0004
 Hexadecapole moment (field-independent basis, Debye-Ang**3):
 XXXX=           -194.5531 YYYY=           -198.1190 ZZZZ=            -44.0242 XXXY=              0.0006
 XXXZ=             -0.0028 YYYX=              0.0044 YYYZ=              0.0078 ZZZX=             -0.0041
 ZZZY=              0.0069 XXYY=            -64.9123 XXZZ=            -48.0921 YYZZ=            -41.3684
 XXYZ=              0.0021 YYXZ=             -0.0007 ZZXY=             -0.0068
 N-N= 1.564566102287D+02 E-N=-7.630885938095D+02  KE= 1.932303368393D+02
 D1PCM: PCM CHGder 1st derivatives, ID1Alg=3 FixD1E=F DoIter=F DoCFld=F I1PDM=0.
 Calling FoFJK, ICntrl=      2127 FMM=F ISym2X=0 I1Cent= 0 IOpClX= 0 NMat=1 NMatS=1 NMatT=0.
 ***** Axes restored to original set *****
 -------------------------------------------------------------------
 Center     Atomic                   Forces (Hartrees/Bohr)
 Number     Number              X              Y              Z
 -------------------------------------------------------------------
      1        6           0.000240448    0.001307514    0.000006901
      2        6          -0.001111103   -0.001251350    0.000003256
      3        6           0.001100665   -0.001240882   -0.000006148
      4        6          -0.000221138    0.001315496    0.000010667
      5        1           0.001421269    0.000530845   -0.000000862
      6        1           0.000767085   -0.001320812   -0.000000083
      7        1          -0.000761283   -0.001324366   -0.000002770
      8        1          -0.001423027    0.000526995    0.000002390
      9        6          -0.000016334   -0.000624262   -0.000010808
     10        1           0.000002458    0.001041814   -0.000931283
     11        1           0.000000960    0.001039008    0.000928740
 -------------------------------------------------------------------
 Cartesian Forces:  Max     0.001423027 RMS     0.000828555

 GradGradGradGradGradGradGradGradGradGradGradGradGradGradGradGradGradGrad
 Berny optimization.
 FormGI is forming the generalized inverse of G from B-inverse, IUseBI=4.
 Internal  Forces:  Max     0.002684621 RMS     0.000757009
 Search for a local minimum.
 Step number   1 out of a maximum of   63
 All quantities printed in internal units (Hartrees-Bohrs-Radians)
 Mixed Optimization -- En-DIIS/RFO-DIIS
 Second derivative matrix not updated -- first step.
 ITU=  0
     Eigenvalues ---    0.00930   0.01332   0.01587   0.01858   0.01913
     Eigenvalues ---    0.02264   0.05280   0.07074   0.08637   0.09806
     Eigenvalues ---    0.16000   0.16000   0.16000   0.16000   0.21894
     Eigenvalues ---    0.22000   0.30291   0.30970   0.33639   0.33639
     Eigenvalues ---    0.34863   0.35448   0.35448   0.35603   0.35603
     Eigenvalues ---    0.50381   0.54658
 RFO step:  Lambda=-7.36187791D-05 EMin= 9.30467939D-03
 Linear search not attempted -- first point.
 Iteration  1 RMS(Cart)=  0.00279087 RMS(Int)=  0.00000125
 Iteration  2 RMS(Cart)=  0.00000121 RMS(Int)=  0.00000010
 Iteration  3 RMS(Cart)=  0.00000000 RMS(Int)=  0.00000010
 Variable       Old X    -DE/DX   Delta X   Delta X   Delta X     New X
                                 (Linear)    (Quad)   (Total)
    R1        2.54911  -0.00268   0.00000  -0.00491  -0.00491   2.54419
    R2        2.04706  -0.00152   0.00000  -0.00426  -0.00426   2.04281
    R3        2.84554  -0.00114   0.00000  -0.00336  -0.00336   2.84218
    R4        2.77668  -0.00044   0.00000  -0.00149  -0.00149   2.77518
    R5        2.04954  -0.00152   0.00000  -0.00430  -0.00430   2.04524
    R6        2.54910  -0.00268   0.00000  -0.00491  -0.00491   2.54419
    R7        2.04953  -0.00152   0.00000  -0.00430  -0.00430   2.04524
    R8        2.04707  -0.00152   0.00000  -0.00426  -0.00426   2.04281
    R9        2.84547  -0.00113   0.00000  -0.00332  -0.00332   2.84216
   R10        2.07944  -0.00137   0.00000  -0.00408  -0.00408   2.07537
   R11        2.07943  -0.00137   0.00000  -0.00406  -0.00406   2.07537
    A1        2.21617  -0.00004   0.00000  -0.00044  -0.00044   2.21572
    A2        1.90332  -0.00007   0.00000  -0.00006  -0.00006   1.90326
    A3        2.16370   0.00011   0.00000   0.00050   0.00050   2.16421
    A4        1.90779   0.00008   0.00000  -0.00003  -0.00003   1.90776
    A5        2.20439  -0.00016   0.00000  -0.00071  -0.00071   2.20368
    A6        2.17101   0.00007   0.00000   0.00074   0.00074   2.17175
    A7        1.90779   0.00008   0.00000  -0.00003  -0.00003   1.90776
    A8        2.17095   0.00008   0.00000   0.00078   0.00078   2.17173
    A9        2.20444  -0.00016   0.00000  -0.00075  -0.00075   2.20369
   A10        2.21611  -0.00003   0.00000  -0.00042  -0.00042   2.21570
   A11        1.90334  -0.00008   0.00000  -0.00007  -0.00007   1.90326
   A12        2.16373   0.00011   0.00000   0.00049   0.00049   2.16422
   A13        1.80254  -0.00002   0.00000   0.00020   0.00020   1.80274
   A14        1.95477  -0.00005   0.00000  -0.00073  -0.00073   1.95404
   A15        1.95480  -0.00004   0.00000  -0.00069  -0.00069   1.95411
   A16        1.95483  -0.00005   0.00000  -0.00077  -0.00077   1.95406
   A17        1.95484  -0.00004   0.00000  -0.00071  -0.00071   1.95413
   A18        1.84541   0.00019   0.00000   0.00253   0.00253   1.84794
    D1        3.14154   0.00000   0.00000   0.00006   0.00006  -3.14158
    D2       -0.00004  -0.00000   0.00000   0.00003   0.00003  -0.00001
    D3        0.00003  -0.00000   0.00000  -0.00005  -0.00005  -0.00001
    D4       -3.14154  -0.00000   0.00000  -0.00009  -0.00009   3.14156
    D5       -0.00011   0.00000   0.00000   0.00020   0.00020   0.00009
    D6        2.10649  -0.00009   0.00000  -0.00098  -0.00098   2.10551
    D7       -2.10673   0.00009   0.00000   0.00128   0.00128  -2.10545
    D8        3.14157   0.00000   0.00000   0.00009   0.00009  -3.14153
    D9       -1.03502  -0.00009   0.00000  -0.00109  -0.00109  -1.03611
   D10        1.03494   0.00009   0.00000   0.00117   0.00117   1.03611
   D11        0.00006  -0.00000   0.00000  -0.00015  -0.00015  -0.00008
   D12       -3.14155  -0.00000   0.00000  -0.00004  -0.00004  -3.14159
   D13       -3.14155  -0.00000   0.00000  -0.00011  -0.00011   3.14153
   D14        0.00003   0.00000   0.00000  -0.00000  -0.00000   0.00002
   D15        3.14153   0.00000   0.00000   0.00009   0.00009  -3.14156
   D16       -0.00013   0.00000   0.00000   0.00027   0.00027   0.00014
   D17       -0.00004   0.00000   0.00000  -0.00002  -0.00002  -0.00006
   D18        3.14148   0.00000   0.00000   0.00016   0.00016  -3.14154
   D19        0.00014  -0.00001   0.00000  -0.00029  -0.00029  -0.00015
   D20       -2.10641   0.00009   0.00000   0.00086   0.00086  -2.10555
   D21        2.10674  -0.00009   0.00000  -0.00136  -0.00136   2.10538
   D22       -3.14151  -0.00000   0.00000  -0.00012  -0.00012   3.14156
   D23        1.03512   0.00009   0.00000   0.00104   0.00104   1.03615
   D24       -1.03492  -0.00009   0.00000  -0.00118  -0.00118  -1.03610
         Item               Value     Threshold  Converged?
 Maximum Force            0.002685     0.000450     NO 
 RMS     Force            0.000757     0.000300     NO 
 Maximum Displacement     0.008387     0.001800     NO 
 RMS     Displacement     0.002791     0.001200     NO 
 Predicted change in Energy=-3.681652D-05
 GradGradGradGradGradGradGradGradGradGradGradGradGradGradGradGradGradGrad

                          Input orientation:                          
 ---------------------------------------------------------------------
 Center     Atomic      Atomic             Coordinates (Angstroms)
 Number     Number       Type             X           Y           Z
 ---------------------------------------------------------------------
      1          6           0       -1.179334   -0.281971    0.000009
      2          6           0       -0.734596    0.988781   -0.000127
      3          6           0        0.733969    0.989234   -0.000119
      4          6           0        1.179487   -0.281245    0.000128
      5          1           0       -2.209383   -0.609961    0.000026
      6          1           0       -1.346830    1.881267   -0.000247
      7          1           0        1.345637    1.882107   -0.000211
      8          1           0        2.209746   -0.608577    0.000220
      9          6           0        0.000372   -1.214905    0.000096
     10          1           0        0.000523   -1.876677    0.876556
     11          1           0        0.000607   -1.876851   -0.876231
 ---------------------------------------------------------------------
                    Distance matrix (angstroms):
                    1          2          3          4          5
     1  C    0.000000
     2  C    1.346329   0.000000
     3  C    2.297104   1.468565   0.000000
     4  C    2.358821   2.297103   1.346329   0.000000
     5  H    1.081008   2.175080   3.349738   3.404776   0.000000
     6  H    2.169713   1.082294   2.263944   3.325468   2.636326
     7  H    3.325464   2.263935   1.082294   2.169723   4.341494
     8  H    3.404781   3.349732   2.175067   1.081009   4.419130
     9  C    1.504018   2.323017   2.323013   1.504006   2.291064
    10  H    2.168751   3.085421   3.085441   2.168752   2.693800
    11  H    2.168801   3.085438   3.085423   2.168807   2.693862
                    6          7          8          9         10
     6  H    0.000000
     7  H    2.692467   0.000000
     8  H    4.341492   2.636321   0.000000
     9  C    3.376571   3.376569   2.291063   0.000000
    10  H    4.087332   4.087359   2.693828   1.098237   0.000000
    11  H    4.087344   4.087332   2.693879   1.098236   1.752787
                   11
    11  H    0.000000
 Stoichiometry    C5H6
 Framework group  C1[X(C5H6)]
 Deg. of freedom    27
 Full point group                 C1      NOp   1
 Largest Abelian subgroup         C1      NOp   1
 Largest concise Abelian subgroup C1      NOp   1
                         Standard orientation:                         
 ---------------------------------------------------------------------
 Center     Atomic      Atomic             Coordinates (Angstroms)
 Number     Number       Type             X           Y           Z
 ---------------------------------------------------------------------
      1          6           0       -1.179415   -0.281335    0.000008
      2          6           0       -0.734271    0.989275   -0.000128
      3          6           0        0.734294    0.989258   -0.000120
      4          6           0        1.179406   -0.281363    0.000127
      5          1           0       -2.209569   -0.608995    0.000025
      6          1           0       -1.346219    1.881957   -0.000248
      7          1           0        1.346248    1.881935   -0.000212
      8          1           0        2.209560   -0.609025    0.000219
      9          6           0       -0.000008   -1.214645    0.000095
     10          1           0       -0.000069   -1.876418    0.876555
     11          1           0        0.000015   -1.876592   -0.876232
 ---------------------------------------------------------------------
 Rotational constants (GHZ):           8.4791958           8.2354509           4.2875160
 Standard basis: 6-311G(d,p) (5D, 7F)
 There are   131 symmetry adapted cartesian basis functions of A   symmetry.
 There are   126 symmetry adapted basis functions of A   symmetry.
   126 basis functions,   208 primitive gaussians,   131 cartesian basis functions
    18 alpha electrons       18 beta electrons
       nuclear repulsion energy       156.7052999945 Hartrees.
 NAtoms=   11 NActive=   11 NUniq=   11 SFac= 1.00D+00 NAtFMM=   60 NAOKFM=F Big=F
 Integral buffers will be    131072 words long.
 Raffenetti 2 integral format.
 Two-electron integral symmetry is turned on.
 Nuclear repulsion after empirical dispersion term =      156.6904290067 Hartrees.
 ------------------------------------------------------------------------------
 Polarizable Continuum Model (PCM)
 =================================
 Model                : PCM.
 Atomic radii         : UFF (Universal Force Field).
 Polarization charges : Total charges.
 Charge compensation  : None.
 Solution method      : On-the-fly selection.
 Cavity type          : Scaled VdW (van der Waals Surface) (Alpha=1.100).
 Cavity algorithm     : GePol (No added spheres)
                        Default sphere list used, NSphG=   11.
                        Lebedev-Laikov grids with approx.  5.0 points / Ang**2.
                        Smoothing algorithm: York/Karplus (Gamma=1.0000).
                        Polarization charges: spherical gaussians, with
                                              point-specific exponents (IZeta= 3).
                        Self-potential: point-specific (ISelfS= 7).
                        Self-field    : sphere-specific E.n sum rule (ISelfD= 2).
 1st derivatives      : Analytical E(r).r(x)/FMM algorithm (CHGder, D1EAlg=3).
                        Cavity 1st derivative terms included.
 Solvent              : Cis-Decalin, Eps=   2.213900 Eps(inf)=   2.193361
 ------------------------------------------------------------------------------
 Spheres list:
 ISph  on   Nord     Re0    Alpha      Xe            Ye            Ze
    1   C      1    1.9255  1.100     -1.179415     -0.281335      0.000008
    2   C      2    1.9255  1.100     -0.734271      0.989275     -0.000128
    3   C      3    1.9255  1.100      0.734294      0.989258     -0.000120
    4   C      4    1.9255  1.100      1.179406     -0.281363      0.000127
    5   H      5    1.4430  1.100     -2.209569     -0.608995      0.000025
    6   H      6    1.4430  1.100     -1.346219      1.881957     -0.000248
    7   H      7    1.4430  1.100      1.346248      1.881935     -0.000212
    8   H      8    1.4430  1.100      2.209560     -0.609025      0.000219
    9   C      9    1.9255  1.100     -0.000008     -1.214645      0.000095
   10   H     10    1.4430  1.100     -0.000069     -1.876418      0.876555
   11   H     11    1.4430  1.100      0.000015     -1.876592     -0.876232
 ------------------------------------------------------------------------------
 One-electron integrals computed using PRISM.
 NBasis=   126 RedAO= T EigKep=  7.44D-04  NBF=   126
 NBsUse=   126 1.00D-06 EigRej= -1.00D+00 NBFU=   126
 Initial guess from the checkpoint file:  "01.chk"
 B after Tr=     0.000000   -0.000000   -0.000000
         Rot=    1.000000    0.000004   -0.000001    0.000524 Ang=   0.06 deg.
 Keep R1 ints in memory in canonical form, NReq=154187299.
 Requested convergence on RMS density matrix=1.00D-08 within 128 cycles.
 Requested convergence on MAX density matrix=1.00D-06.
 Requested convergence on             energy=1.00D-06.
 No special actions if energy rises.
 Inv3:  Mode=1 IEnd=     2898867.
 Iteration    1 A*A^-1 deviation from unit magnitude is 4.88D-15 for    230.
 Iteration    1 A*A^-1 deviation from orthogonality  is 2.73D-15 for    611    230.
 Iteration    1 A^-1*A deviation from unit magnitude is 4.00D-15 for    230.
 Iteration    1 A^-1*A deviation from orthogonality  is 3.27D-15 for    734    485.
 Error on total polarization charges =  0.00545
 SCF Done:  E(RB3LYP) =  -194.169531470     A.U. after    8 cycles
            NFock=  8  Conv=0.28D-08     -V/T= 2.0046
 D1PCM: PCM CHGder 1st derivatives, ID1Alg=3 FixD1E=F DoIter=F DoCFld=F I1PDM=0.
 Calling FoFJK, ICntrl=      2127 FMM=F ISym2X=0 I1Cent= 0 IOpClX= 0 NMat=1 NMatS=1 NMatT=0.
 ***** Axes restored to original set *****
 -------------------------------------------------------------------
 Center     Atomic                   Forces (Hartrees/Bohr)
 Number     Number              X              Y              Z
 -------------------------------------------------------------------
      1        6           0.000019913   -0.000032462   -0.000007404
      2        6          -0.000237282    0.000193850   -0.000005165
      3        6           0.000233144    0.000195312    0.000011149
      4        6          -0.000012631   -0.000028176   -0.000017934
      5        1          -0.000048873   -0.000013577   -0.000000142
      6        1          -0.000037752    0.000044440    0.000000899
      7        1           0.000039294    0.000043430    0.000000762
      8        1           0.000048167   -0.000015114   -0.000000547
      9        6          -0.000005728   -0.000476282    0.000019181
     10        1          -0.000000002    0.000041347    0.000010000
     11        1           0.000001749    0.000047233   -0.000010799
 -------------------------------------------------------------------
 Cartesian Forces:  Max     0.000476282 RMS     0.000114505

 GradGradGradGradGradGradGradGradGradGradGradGradGradGradGradGradGradGrad
 Berny optimization.
 Using GEDIIS/GDIIS optimizer.
 FormGI is forming the generalized inverse of G from B-inverse, IUseBI=4.
 Internal  Forces:  Max     0.000247760 RMS     0.000074319
 Search for a local minimum.
 Step number   2 out of a maximum of   63
 All quantities printed in internal units (Hartrees-Bohrs-Radians)
 Mixed Optimization -- En-DIIS/RFO-DIIS
 Swapping is turned off.
 Update second derivatives using D2CorX and points    1    2
 DE= -3.48D-05 DEPred=-3.68D-05 R= 9.45D-01
 TightC=F SS=  1.41D+00  RLast= 1.42D-02 DXNew= 5.0454D-01 4.2552D-02
 Trust test= 9.45D-01 RLast= 1.42D-02 DXMaxT set to 3.00D-01
 ITU=  1  0
     Eigenvalues ---    0.00931   0.01332   0.01586   0.01857   0.01912
     Eigenvalues ---    0.02264   0.05286   0.07009   0.08634   0.09803
     Eigenvalues ---    0.15983   0.16000   0.16000   0.16000   0.21914
     Eigenvalues ---    0.22000   0.30495   0.30969   0.33011   0.33639
     Eigenvalues ---    0.34757   0.35448   0.35528   0.35603   0.36913
     Eigenvalues ---    0.50374   0.57021
 En-DIIS/RFO-DIIS/Sim-DIIS IScMMF=       -3 using points:     2    1
 RFO step:  Lambda=-8.49082142D-07.
 DidBck=F Rises=F RFO-DIIS coefs:    0.97603    0.02397
 Iteration  1 RMS(Cart)=  0.00026897 RMS(Int)=  0.00000006
 Iteration  2 RMS(Cart)=  0.00000006 RMS(Int)=  0.00000003
 Variable       Old X    -DE/DX   Delta X   Delta X   Delta X     New X
                                 (Linear)    (Quad)   (Total)
    R1        2.54419   0.00022   0.00012   0.00021   0.00033   2.54452
    R2        2.04281   0.00005   0.00010  -0.00000   0.00010   2.04291
    R3        2.84218   0.00016   0.00008   0.00037   0.00045   2.84264
    R4        2.77518   0.00025   0.00004   0.00061   0.00065   2.77583
    R5        2.04524   0.00006   0.00010   0.00002   0.00012   2.04536
    R6        2.54419   0.00022   0.00012   0.00021   0.00033   2.54452
    R7        2.04524   0.00006   0.00010   0.00002   0.00012   2.04536
    R8        2.04281   0.00005   0.00010  -0.00000   0.00010   2.04291
    R9        2.84216   0.00017   0.00008   0.00039   0.00047   2.84263
   R10        2.07537  -0.00002   0.00010  -0.00018  -0.00008   2.07528
   R11        2.07537  -0.00002   0.00010  -0.00019  -0.00009   2.07528
    A1        2.21572  -0.00006   0.00001  -0.00029  -0.00028   2.21545
    A2        1.90326   0.00012   0.00000   0.00052   0.00052   1.90378
    A3        2.16421  -0.00006  -0.00001  -0.00023  -0.00024   2.16396
    A4        1.90776  -0.00006   0.00000  -0.00024  -0.00024   1.90752
    A5        2.20368   0.00003   0.00002   0.00006   0.00008   2.20375
    A6        2.17175   0.00004  -0.00002   0.00018   0.00016   2.17191
    A7        1.90776  -0.00006   0.00000  -0.00024  -0.00024   1.90752
    A8        2.17173   0.00004  -0.00002   0.00019   0.00017   2.17190
    A9        2.20369   0.00002   0.00002   0.00005   0.00006   2.20376
   A10        2.21570  -0.00006   0.00001  -0.00027  -0.00026   2.21544
   A11        1.90326   0.00011   0.00000   0.00051   0.00051   1.90378
   A12        2.16422  -0.00006  -0.00001  -0.00024  -0.00025   2.16397
   A13        1.80274  -0.00010  -0.00000  -0.00056  -0.00056   1.80217
   A14        1.95404   0.00002   0.00002   0.00004   0.00006   1.95409
   A15        1.95411   0.00002   0.00002  -0.00004  -0.00003   1.95408
   A16        1.95406   0.00002   0.00002   0.00004   0.00005   1.95411
   A17        1.95413   0.00002   0.00002  -0.00006  -0.00005   1.95409
   A18        1.84794   0.00002  -0.00006   0.00056   0.00050   1.84844
    D1       -3.14158  -0.00000  -0.00000  -0.00004  -0.00005   3.14156
    D2       -0.00001   0.00000  -0.00000   0.00000  -0.00000  -0.00001
    D3       -0.00001   0.00000   0.00000   0.00004   0.00004   0.00003
    D4        3.14156   0.00000   0.00000   0.00009   0.00009  -3.14154
    D5        0.00009  -0.00000  -0.00000  -0.00021  -0.00021  -0.00012
    D6        2.10551  -0.00003   0.00002  -0.00048  -0.00046   2.10505
    D7       -2.10545   0.00003  -0.00003   0.00023   0.00020  -2.10525
    D8       -3.14153  -0.00000  -0.00000  -0.00013  -0.00013   3.14153
    D9       -1.03611  -0.00002   0.00003  -0.00040  -0.00038  -1.03649
   D10        1.03611   0.00003  -0.00003   0.00031   0.00028   1.03640
   D11       -0.00008   0.00000   0.00000   0.00017   0.00017   0.00009
   D12       -3.14159   0.00000   0.00000   0.00001   0.00001  -3.14158
   D13        3.14153   0.00000   0.00000   0.00012   0.00013  -3.14153
   D14        0.00002  -0.00000   0.00000  -0.00004  -0.00004  -0.00001
   D15       -3.14156  -0.00000  -0.00000  -0.00008  -0.00008   3.14154
   D16        0.00014  -0.00001  -0.00001  -0.00030  -0.00031  -0.00016
   D17       -0.00006   0.00000   0.00000   0.00009   0.00009   0.00003
   D18       -3.14154  -0.00000  -0.00000  -0.00014  -0.00014   3.14151
   D19       -0.00015   0.00001   0.00001   0.00031   0.00032   0.00017
   D20       -2.10555   0.00003  -0.00002   0.00059   0.00057  -2.10498
   D21        2.10538  -0.00002   0.00003  -0.00011  -0.00008   2.10531
   D22        3.14156   0.00000   0.00000   0.00010   0.00010  -3.14153
   D23        1.03615   0.00002  -0.00002   0.00037   0.00035   1.03650
   D24       -1.03610  -0.00003   0.00003  -0.00032  -0.00030  -1.03639
         Item               Value     Threshold  Converged?
 Maximum Force            0.000248     0.000450     YES
 RMS     Force            0.000074     0.000300     YES
 Maximum Displacement     0.000921     0.001800     YES
 RMS     Displacement     0.000269     0.001200     YES
 Predicted change in Energy=-4.245326D-07
 Optimization completed.
    -- Stationary point found.
                           ----------------------------
                           !   Optimized Parameters   !
                           ! (Angstroms and Degrees)  !
 --------------------------                            --------------------------
 ! Name  Definition              Value          Derivative Info.                !
 --------------------------------------------------------------------------------
 ! R1    R(1,2)                  1.3463         -DE/DX =    0.0002              !
 ! R2    R(1,5)                  1.081          -DE/DX =    0.0001              !
 ! R3    R(1,9)                  1.504          -DE/DX =    0.0002              !
 ! R4    R(2,3)                  1.4686         -DE/DX =    0.0002              !
 ! R5    R(2,6)                  1.0823         -DE/DX =    0.0001              !
 ! R6    R(3,4)                  1.3463         -DE/DX =    0.0002              !
 ! R7    R(3,7)                  1.0823         -DE/DX =    0.0001              !
 ! R8    R(4,8)                  1.081          -DE/DX =    0.0001              !
 ! R9    R(4,9)                  1.504          -DE/DX =    0.0002              !
 ! R10   R(9,10)                 1.0982         -DE/DX =    0.0                 !
 ! R11   R(9,11)                 1.0982         -DE/DX =    0.0                 !
 ! A1    A(2,1,5)              126.9516         -DE/DX =   -0.0001              !
 ! A2    A(2,1,9)              109.0486         -DE/DX =    0.0001              !
 ! A3    A(5,1,9)              123.9998         -DE/DX =   -0.0001              !
 ! A4    A(1,2,3)              109.3067         -DE/DX =   -0.0001              !
 ! A5    A(1,2,6)              126.2614         -DE/DX =    0.0                 !
 ! A6    A(3,2,6)              124.4319         -DE/DX =    0.0                 !
 ! A7    A(2,3,4)              109.3066         -DE/DX =   -0.0001              !
 ! A8    A(2,3,7)              124.431          -DE/DX =    0.0                 !
 ! A9    A(4,3,7)              126.2624         -DE/DX =    0.0                 !
 ! A10   A(3,4,8)              126.9502         -DE/DX =   -0.0001              !
 ! A11   A(3,4,9)              109.049          -DE/DX =    0.0001              !
 ! A12   A(8,4,9)              124.0007         -DE/DX =   -0.0001              !
 ! A13   A(1,9,4)              103.2891         -DE/DX =   -0.0001              !
 ! A14   A(1,9,10)             111.9581         -DE/DX =    0.0                 !
 ! A15   A(1,9,11)             111.9622         -DE/DX =    0.0                 !
 ! A16   A(4,9,10)             111.9591         -DE/DX =    0.0                 !
 ! A17   A(4,9,11)             111.9636         -DE/DX =    0.0                 !
 ! A18   A(10,9,11)            105.8792         -DE/DX =    0.0                 !
 ! D1    D(5,1,2,3)            180.0009         -DE/DX =    0.0                 !
 ! D2    D(5,1,2,6)             -0.0005         -DE/DX =    0.0                 !
 ! D3    D(9,1,2,3)             -0.0008         -DE/DX =    0.0                 !
 ! D4    D(9,1,2,6)           -180.0021         -DE/DX =    0.0                 !
 ! D5    D(2,1,9,4)              0.0054         -DE/DX =    0.0                 !
 ! D6    D(2,1,9,10)           120.6368         -DE/DX =    0.0                 !
 ! D7    D(2,1,9,11)          -120.6334         -DE/DX =    0.0                 !
 ! D8    D(5,1,9,4)            180.0038         -DE/DX =    0.0                 !
 ! D9    D(5,1,9,10)           -59.3648         -DE/DX =    0.0                 !
 ! D10   D(5,1,9,11)            59.3649         -DE/DX =    0.0                 !
 ! D11   D(1,2,3,4)             -0.0048         -DE/DX =    0.0                 !
 ! D12   D(1,2,3,7)           -179.9999         -DE/DX =    0.0                 !
 ! D13   D(6,2,3,4)           -180.0035         -DE/DX =    0.0                 !
 ! D14   D(6,2,3,7)              0.0014         -DE/DX =    0.0                 !
 ! D15   D(2,3,4,8)            180.0016         -DE/DX =    0.0                 !
 ! D16   D(2,3,4,9)              0.0083         -DE/DX =    0.0                 !
 ! D17   D(7,3,4,8)             -0.0034         -DE/DX =    0.0                 !
 ! D18   D(7,3,4,9)            180.0032         -DE/DX =    0.0                 !
 ! D19   D(3,4,9,1)             -0.0084         -DE/DX =    0.0                 !
 ! D20   D(3,4,9,10)          -120.6391         -DE/DX =    0.0                 !
 ! D21   D(3,4,9,11)           120.6295         -DE/DX =    0.0                 !
 ! D22   D(8,4,9,1)           -180.002          -DE/DX =    0.0                 !
 ! D23   D(8,4,9,10)            59.3673         -DE/DX =    0.0                 !
 ! D24   D(8,4,9,11)           -59.3641         -DE/DX =    0.0                 !
 --------------------------------------------------------------------------------
 GradGradGradGradGradGradGradGradGradGradGradGradGradGradGradGradGradGrad

                          Input orientation:                          
 ---------------------------------------------------------------------
 Center     Atomic      Atomic             Coordinates (Angstroms)
 Number     Number       Type             X           Y           Z
 ---------------------------------------------------------------------
      1          6           0       -1.179334   -0.281971    0.000009
      2          6           0       -0.734596    0.988781   -0.000127
      3          6           0        0.733969    0.989234   -0.000119
      4          6           0        1.179487   -0.281245    0.000128
      5          1           0       -2.209383   -0.609961    0.000026
      6          1           0       -1.346830    1.881267   -0.000247
      7          1           0        1.345637    1.882107   -0.000211
      8          1           0        2.209746   -0.608577    0.000220
      9          6           0        0.000372   -1.214905    0.000096
     10          1           0        0.000523   -1.876677    0.876556
     11          1           0        0.000607   -1.876851   -0.876231
 ---------------------------------------------------------------------
                    Distance matrix (angstroms):
                    1          2          3          4          5
     1  C    0.000000
     2  C    1.346329   0.000000
     3  C    2.297104   1.468565   0.000000
     4  C    2.358821   2.297103   1.346329   0.000000
     5  H    1.081008   2.175080   3.349738   3.404776   0.000000
     6  H    2.169713   1.082294   2.263944   3.325468   2.636326
     7  H    3.325464   2.263935   1.082294   2.169723   4.341494
     8  H    3.404781   3.349732   2.175067   1.081009   4.419130
     9  C    1.504018   2.323017   2.323013   1.504006   2.291064
    10  H    2.168751   3.085421   3.085441   2.168752   2.693800
    11  H    2.168801   3.085438   3.085423   2.168807   2.693862
                    6          7          8          9         10
     6  H    0.000000
     7  H    2.692467   0.000000
     8  H    4.341492   2.636321   0.000000
     9  C    3.376571   3.376569   2.291063   0.000000
    10  H    4.087332   4.087359   2.693828   1.098237   0.000000
    11  H    4.087344   4.087332   2.693879   1.098236   1.752787
                   11
    11  H    0.000000
 Stoichiometry    C5H6
 Framework group  C1[X(C5H6)]
 Deg. of freedom    27
 Full point group                 C1      NOp   1
 Largest Abelian subgroup         C1      NOp   1
 Largest concise Abelian subgroup C1      NOp   1
                         Standard orientation:                         
 ---------------------------------------------------------------------
 Center     Atomic      Atomic             Coordinates (Angstroms)
 Number     Number       Type             X           Y           Z
 ---------------------------------------------------------------------
      1          6           0       -1.179415   -0.281335    0.000008
      2          6           0       -0.734271    0.989275   -0.000128
      3          6           0        0.734294    0.989258   -0.000120
      4          6           0        1.179406   -0.281363    0.000127
      5          1           0       -2.209569   -0.608995    0.000025
      6          1           0       -1.346219    1.881957   -0.000248
      7          1           0        1.346248    1.881935   -0.000212
      8          1           0        2.209560   -0.609025    0.000219
      9          6           0       -0.000008   -1.214645    0.000095
     10          1           0       -0.000069   -1.876418    0.876555
     11          1           0        0.000015   -1.876592   -0.876232
 ---------------------------------------------------------------------
 Rotational constants (GHZ):           8.4791958           8.2354509           4.2875160

 **********************************************************************

            Population analysis using the SCF density.

 **********************************************************************

 Orbital symmetries:
       Occupied  (A) (A) (A) (A) (A) (A) (A) (A) (A) (A) (A) (A)
                 (A) (A) (A) (A) (A) (A)
       Virtual   (A) (A) (A) (A) (A) (A) (A) (A) (A) (A) (A) (A)
                 (A) (A) (A) (A) (A) (A) (A) (A) (A) (A) (A) (A)
                 (A) (A) (A) (A) (A) (A) (A) (A) (A) (A) (A) (A)
                 (A) (A) (A) (A) (A) (A) (A) (A) (A) (A) (A) (A)
                 (A) (A) (A) (A) (A) (A) (A) (A) (A) (A) (A) (A)
                 (A) (A) (A) (A) (A) (A) (A) (A) (A) (A) (A) (A)
                 (A) (A) (A) (A) (A) (A) (A) (A) (A) (A) (A) (A)
                 (A) (A) (A) (A) (A) (A) (A) (A) (A) (A) (A) (A)
                 (A) (A) (A) (A) (A) (A) (A) (A) (A) (A) (A) (A)
 The electronic state is 1-A.
 Alpha  occ. eigenvalues --  -10.17570 -10.16709 -10.16681 -10.16576 -10.16573
 Alpha  occ. eigenvalues --   -0.85789  -0.70670  -0.70431  -0.55271  -0.53103
 Alpha  occ. eigenvalues --   -0.51579  -0.43733  -0.40115  -0.37795  -0.36080
 Alpha  occ. eigenvalues --   -0.36073  -0.30402  -0.22381
 Alpha virt. eigenvalues --   -0.02217   0.05371   0.07187   0.08535   0.09099
 Alpha virt. eigenvalues --    0.11094   0.11391   0.11565   0.19090   0.21190
 Alpha virt. eigenvalues --    0.29070   0.29190   0.30464   0.37146   0.38711
 Alpha virt. eigenvalues --    0.38968   0.40502   0.43052   0.43926   0.44459
 Alpha virt. eigenvalues --    0.44538   0.51426   0.51560   0.54499   0.55395
 Alpha virt. eigenvalues --    0.58356   0.59632   0.61873   0.64544   0.66078
 Alpha virt. eigenvalues --    0.66668   0.67224   0.73990   0.75868   0.81902
 Alpha virt. eigenvalues --    0.83505   0.89828   0.96635   0.98512   1.00132
 Alpha virt. eigenvalues --    1.01747   1.09233   1.12913   1.17023   1.38003
 Alpha virt. eigenvalues --    1.42019   1.43225   1.50544   1.51095   1.52883
 Alpha virt. eigenvalues --    1.52909   1.53299   1.54298   1.58529   1.63945
 Alpha virt. eigenvalues --    1.64156   1.72334   1.73346   1.79070   1.80988
 Alpha virt. eigenvalues --    1.81206   1.85619   1.87286   1.88448   1.92912
 Alpha virt. eigenvalues --    1.93942   1.96085   2.07857   2.10761   2.20169
 Alpha virt. eigenvalues --    2.22176   2.27059   2.32393   2.33683   2.37200
 Alpha virt. eigenvalues --    2.40901   2.49311   2.51121   2.54461   2.55037
 Alpha virt. eigenvalues --    2.58586   2.62869   2.66137   2.66533   2.67710
 Alpha virt. eigenvalues --    2.74196   2.74198   2.74562   2.90739   2.98399
 Alpha virt. eigenvalues --    2.99306   3.02693   3.13323   3.30187   3.33988
 Alpha virt. eigenvalues --    3.46082   3.46120   3.75140   4.01527   4.03148
 Alpha virt. eigenvalues --    4.05523   4.12744   4.57847  23.61431  23.79435
 Alpha virt. eigenvalues --   23.87703  24.22650  24.25292
          Condensed to atoms (all electrons):
               1          2          3          4          5          6
     1  C    4.995558   0.621062  -0.076981  -0.113750   0.413914  -0.041861
     2  C    0.621062   4.901590   0.409331  -0.076980  -0.035028   0.417430
     3  C   -0.076981   0.409331   4.901588   0.621063   0.007574  -0.042160
     4  C   -0.113750  -0.076980   0.621063   4.995552   0.004949   0.005619
     5  H    0.413914  -0.035028   0.007574   0.004949   0.550803  -0.005096
     6  H   -0.041861   0.417430  -0.042160   0.005619  -0.005096   0.562801
     7  H    0.005619  -0.042161   0.417430  -0.041860  -0.000318  -0.001551
     8  H    0.004949   0.007574  -0.035029   0.413914  -0.000205  -0.000318
     9  C    0.396912  -0.106119  -0.106118   0.396913  -0.038391   0.009304
    10  H   -0.027782   0.001649   0.001651  -0.027783  -0.000279  -0.000359
    11  H   -0.027773   0.001649   0.001646  -0.027771  -0.000278  -0.000359
               7          8          9         10         11
     1  C    0.005619   0.004949   0.396912  -0.027782  -0.027773
     2  C   -0.042161   0.007574  -0.106119   0.001649   0.001649
     3  C    0.417430  -0.035029  -0.106118   0.001651   0.001646
     4  C   -0.041860   0.413914   0.396913  -0.027783  -0.027771
     5  H   -0.000318  -0.000205  -0.038391  -0.000279  -0.000278
     6  H   -0.001551  -0.000318   0.009304  -0.000359  -0.000359
     7  H    0.562800  -0.005096   0.009304  -0.000359  -0.000359
     8  H   -0.005096   0.550804  -0.038390  -0.000279  -0.000278
     9  C    0.009304  -0.038390   4.888098   0.383575   0.383572
    10  H   -0.000359  -0.000279   0.383575   0.557030  -0.027348
    11  H   -0.000359  -0.000278   0.383572  -0.027348   0.557006
 Mulliken charges:
               1
     1  C   -0.149866
     2  C   -0.099996
     3  C   -0.099995
     4  C   -0.149865
     5  H    0.102354
     6  H    0.096550
     7  H    0.096550
     8  H    0.102354
     9  C   -0.178660
    10  H    0.140283
    11  H    0.140293
 Sum of Mulliken charges =  -0.00000
 Mulliken charges with hydrogens summed into heavy atoms:
               1
     1  C   -0.047512
     2  C   -0.003447
     3  C   -0.003445
     4  C   -0.047511
     9  C    0.101916
 Electronic spatial extent (au):  <R**2>=            331.9746
 Charge=              0.0000 electrons
 Dipole moment (field-independent basis, Debye):
    X=             -0.0000    Y=             -0.5401    Z=             -0.0000  Tot=              0.5401
 Quadrupole moment (field-independent basis, Debye-Ang):
   XX=            -28.6434   YY=            -27.1011   ZZ=            -32.9295
   XY=              0.0001   XZ=              0.0001   YZ=             -0.0006
 Traceless Quadrupole moment (field-independent basis, Debye-Ang):
   XX=              0.9146   YY=              2.4569   ZZ=             -3.3715
   XY=              0.0001   XZ=              0.0001   YZ=             -0.0006
 Octapole moment (field-independent basis, Debye-Ang**2):
  XXX=             -0.0000  YYY=              1.8257  ZZZ=              0.0006  XYY=             -0.0001
  XXY=             -0.3534  XXZ=              0.0003  XZZ=             -0.0000  YZZ=             -2.7605
  YYZ=             -0.0013  XYZ=             -0.0001
 Hexadecapole moment (field-independent basis, Debye-Ang**3):
 XXXX=           -194.1408 YYYY=           -197.5516 ZZZZ=            -43.9234 XXXY=              0.0002
 XXXZ=             -0.0018 YYYX=              0.0003 YYYZ=              0.0087 ZZZX=             -0.0037
 ZZZY=              0.0092 XXYY=            -64.7390 XXZZ=            -47.9518 YYZZ=            -41.2172
 XXYZ=              0.0016 YYXZ=             -0.0011 ZZXY=              0.0001
 N-N= 1.566904290067D+02 E-N=-7.635888442050D+02  KE= 1.932709741626D+02
 1\1\GINC-NODE05\FOpt\RB3LYP\6-311G(d,p)\C5H6\HONGCHANG\23-Jul-2025\0\\
 # opt freq b3lyp/6-311g(d,p) em=gd3bj scrf(solvent=Cis-Decalin)\\01\\0
 ,1\C,-1.1793338631,-0.2819714909,0.0000088441\C,-0.7345959277,0.988780
 6785,-0.0001266484\C,0.733968546,0.989233565,-0.0001191291\C,1.1794873
 696,-0.2812450307,0.0001276855\H,-2.2093829792,-0.6099613297,0.0000258
 484\H,-1.3468295903,1.8812666652,-0.0002468139\H,1.3456370081,1.882106
 697,-0.0002114141\H,2.209746429,-0.6085768318,0.0002199703\C,0.0003722
 913,-1.2149046306,0.0000963669\H,0.0005229233,-1.8766769521,0.87655605
 17\H,0.0006067931,-1.87685134,-0.8762307614\\Version=ES64L-G16RevA.03\
 State=1-A\HF=-194.1695315\RMSD=2.791e-09\RMSF=1.145e-04\Dipole=0.00006
 21,-0.2125105,-0.000003\Quadrupole=0.6799972,1.8266333,-2.5066305,-0.0
 003034,0.0001026,-0.0004409\PG=C01 [X(C5H6)]\\@


 We find comfort among those who agree with us -- growth among those who don't.
 -- Frank A. Clark
 Job cpu time:       0 days  0 hours 40 minutes 15.2 seconds.
 Elapsed time:       0 days  0 hours  0 minutes 24.7 seconds.
 File lengths (MBytes):  RWF=     42 Int=      0 D2E=      0 Chk=      4 Scr=      2
 Normal termination of Gaussian 16 at Wed Jul 23 23:12:17 2025.
 Link1:  Proceeding to internal job step number  2.
 ----------------------------------------------------------------------
 #N Geom=AllCheck Guess=TCheck SCRF=Check GenChk RB3LYP/6-311G(d,p) Fre
 q
 ----------------------------------------------------------------------
 1/10=4,29=7,30=1,38=1,40=1/1,3;
 2/12=2,40=1/2;
 3/5=4,6=6,7=101,11=2,14=-4,25=1,30=1,70=2,71=2,74=-5,116=1,124=41,140=1/1,2,3;
 4/5=101/1;
 5/5=2,38=6,98=1/2;
 8/6=4,10=90,11=11/1;
 11/6=1,8=1,9=11,15=111,16=1/1,2,10;
 10/6=1/2;
 6/7=2,8=2,9=2,10=2,28=1/1;
 7/8=1,10=1,25=1/1,2,3,16;
 1/10=4,30=1/3;
 99//99;
 Structure from the checkpoint file:  "01.chk"
 --
 01
 --
 Charge =  0 Multiplicity = 1
 Redundant internal coordinates found in file.  (old form).
 C,0,-1.1793338631,-0.2819714909,0.0000088441
 C,0,-0.7345959277,0.9887806785,-0.0001266484
 C,0,0.733968546,0.989233565,-0.0001191291
 C,0,1.1794873696,-0.2812450307,0.0001276855
 H,0,-2.2093829792,-0.6099613297,0.0000258484
 H,0,-1.3468295903,1.8812666652,-0.0002468139
 H,0,1.3456370081,1.882106697,-0.0002114141
 H,0,2.209746429,-0.6085768318,0.0002199703
 C,0,0.0003722913,-1.2149046306,0.0000963669
 H,0,0.0005229233,-1.8766769521,0.8765560517
 H,0,0.0006067931,-1.87685134,-0.8762307614
 Recover connectivity data from disk.

 GradGradGradGradGradGradGradGradGradGradGradGradGradGradGradGradGradGrad
 Berny optimization.
 Initialization pass.
                           ----------------------------
                           !    Initial Parameters    !
                           ! (Angstroms and Degrees)  !
 --------------------------                            --------------------------
 ! Name  Definition              Value          Derivative Info.                !
 --------------------------------------------------------------------------------
 ! R1    R(1,2)                  1.3463         calculate D2E/DX2 analytically  !
 ! R2    R(1,5)                  1.081          calculate D2E/DX2 analytically  !
 ! R3    R(1,9)                  1.504          calculate D2E/DX2 analytically  !
 ! R4    R(2,3)                  1.4686         calculate D2E/DX2 analytically  !
 ! R5    R(2,6)                  1.0823         calculate D2E/DX2 analytically  !
 ! R6    R(3,4)                  1.3463         calculate D2E/DX2 analytically  !
 ! R7    R(3,7)                  1.0823         calculate D2E/DX2 analytically  !
 ! R8    R(4,8)                  1.081          calculate D2E/DX2 analytically  !
 ! R9    R(4,9)                  1.504          calculate D2E/DX2 analytically  !
 ! R10   R(9,10)                 1.0982         calculate D2E/DX2 analytically  !
 ! R11   R(9,11)                 1.0982         calculate D2E/DX2 analytically  !
 ! A1    A(2,1,5)              126.9516         calculate D2E/DX2 analytically  !
 ! A2    A(2,1,9)              109.0486         calculate D2E/DX2 analytically  !
 ! A3    A(5,1,9)              123.9998         calculate D2E/DX2 analytically  !
 ! A4    A(1,2,3)              109.3067         calculate D2E/DX2 analytically  !
 ! A5    A(1,2,6)              126.2614         calculate D2E/DX2 analytically  !
 ! A6    A(3,2,6)              124.4319         calculate D2E/DX2 analytically  !
 ! A7    A(2,3,4)              109.3066         calculate D2E/DX2 analytically  !
 ! A8    A(2,3,7)              124.431          calculate D2E/DX2 analytically  !
 ! A9    A(4,3,7)              126.2624         calculate D2E/DX2 analytically  !
 ! A10   A(3,4,8)              126.9502         calculate D2E/DX2 analytically  !
 ! A11   A(3,4,9)              109.049          calculate D2E/DX2 analytically  !
 ! A12   A(8,4,9)              124.0007         calculate D2E/DX2 analytically  !
 ! A13   A(1,9,4)              103.2891         calculate D2E/DX2 analytically  !
 ! A14   A(1,9,10)             111.9581         calculate D2E/DX2 analytically  !
 ! A15   A(1,9,11)             111.9622         calculate D2E/DX2 analytically  !
 ! A16   A(4,9,10)             111.9591         calculate D2E/DX2 analytically  !
 ! A17   A(4,9,11)             111.9636         calculate D2E/DX2 analytically  !
 ! A18   A(10,9,11)            105.8792         calculate D2E/DX2 analytically  !
 ! D1    D(5,1,2,3)           -179.9991         calculate D2E/DX2 analytically  !
 ! D2    D(5,1,2,6)             -0.0005         calculate D2E/DX2 analytically  !
 ! D3    D(9,1,2,3)             -0.0008         calculate D2E/DX2 analytically  !
 ! D4    D(9,1,2,6)            179.9979         calculate D2E/DX2 analytically  !
 ! D5    D(2,1,9,4)              0.0054         calculate D2E/DX2 analytically  !
 ! D6    D(2,1,9,10)           120.6368         calculate D2E/DX2 analytically  !
 ! D7    D(2,1,9,11)          -120.6334         calculate D2E/DX2 analytically  !
 ! D8    D(5,1,9,4)           -179.9962         calculate D2E/DX2 analytically  !
 ! D9    D(5,1,9,10)           -59.3648         calculate D2E/DX2 analytically  !
 ! D10   D(5,1,9,11)            59.3649         calculate D2E/DX2 analytically  !
 ! D11   D(1,2,3,4)             -0.0048         calculate D2E/DX2 analytically  !
 ! D12   D(1,2,3,7)           -179.9999         calculate D2E/DX2 analytically  !
 ! D13   D(6,2,3,4)            179.9965         calculate D2E/DX2 analytically  !
 ! D14   D(6,2,3,7)              0.0014         calculate D2E/DX2 analytically  !
 ! D15   D(2,3,4,8)           -179.9984         calculate D2E/DX2 analytically  !
 ! D16   D(2,3,4,9)              0.0083         calculate D2E/DX2 analytically  !
 ! D17   D(7,3,4,8)             -0.0034         calculate D2E/DX2 analytically  !
 ! D18   D(7,3,4,9)           -179.9968         calculate D2E/DX2 analytically  !
 ! D19   D(3,4,9,1)             -0.0084         calculate D2E/DX2 analytically  !
 ! D20   D(3,4,9,10)          -120.6391         calculate D2E/DX2 analytically  !
 ! D21   D(3,4,9,11)           120.6295         calculate D2E/DX2 analytically  !
 ! D22   D(8,4,9,1)            179.998          calculate D2E/DX2 analytically  !
 ! D23   D(8,4,9,10)            59.3673         calculate D2E/DX2 analytically  !
 ! D24   D(8,4,9,11)           -59.3641         calculate D2E/DX2 analytically  !
 --------------------------------------------------------------------------------
 Trust Radius=3.00D-01 FncErr=1.00D-07 GrdErr=1.00D-07 EigMax=2.50D+02 EigMin=1.00D-04
 Number of steps in this run=      2 maximum allowed number of steps=      2.
 GradGradGradGradGradGradGradGradGradGradGradGradGradGradGradGradGradGrad

                          Input orientation:                          
 ---------------------------------------------------------------------
 Center     Atomic      Atomic             Coordinates (Angstroms)
 Number     Number       Type             X           Y           Z
 ---------------------------------------------------------------------
      1          6           0       -1.179334   -0.281971    0.000009
      2          6           0       -0.734596    0.988781   -0.000127
      3          6           0        0.733969    0.989234   -0.000119
      4          6           0        1.179487   -0.281245    0.000128
      5          1           0       -2.209383   -0.609961    0.000026
      6          1           0       -1.346830    1.881267   -0.000247
      7          1           0        1.345637    1.882107   -0.000211
      8          1           0        2.209746   -0.608577    0.000220
      9          6           0        0.000372   -1.214905    0.000096
     10          1           0        0.000523   -1.876677    0.876556
     11          1           0        0.000607   -1.876851   -0.876231
 ---------------------------------------------------------------------
                    Distance matrix (angstroms):
                    1          2          3          4          5
     1  C    0.000000
     2  C    1.346329   0.000000
     3  C    2.297104   1.468565   0.000000
     4  C    2.358821   2.297103   1.346329   0.000000
     5  H    1.081008   2.175080   3.349738   3.404776   0.000000
     6  H    2.169713   1.082294   2.263944   3.325468   2.636326
     7  H    3.325464   2.263935   1.082294   2.169723   4.341494
     8  H    3.404781   3.349732   2.175067   1.081009   4.419130
     9  C    1.504018   2.323017   2.323013   1.504006   2.291064
    10  H    2.168751   3.085421   3.085441   2.168752   2.693800
    11  H    2.168801   3.085438   3.085423   2.168807   2.693862
                    6          7          8          9         10
     6  H    0.000000
     7  H    2.692467   0.000000
     8  H    4.341492   2.636321   0.000000
     9  C    3.376571   3.376569   2.291063   0.000000
    10  H    4.087332   4.087359   2.693828   1.098237   0.000000
    11  H    4.087344   4.087332   2.693879   1.098236   1.752787
                   11
    11  H    0.000000
 Stoichiometry    C5H6
 Framework group  C1[X(C5H6)]
 Deg. of freedom    27
 Full point group                 C1      NOp   1
 Largest Abelian subgroup         C1      NOp   1
 Largest concise Abelian subgroup C1      NOp   1
                         Standard orientation:                         
 ---------------------------------------------------------------------
 Center     Atomic      Atomic             Coordinates (Angstroms)
 Number     Number       Type             X           Y           Z
 ---------------------------------------------------------------------
      1          6           0       -1.179415   -0.281335    0.000008
      2          6           0       -0.734271    0.989275   -0.000128
      3          6           0        0.734294    0.989258   -0.000120
      4          6           0        1.179406   -0.281363    0.000127
      5          1           0       -2.209569   -0.608995    0.000025
      6          1           0       -1.346219    1.881957   -0.000248
      7          1           0        1.346248    1.881935   -0.000212
      8          1           0        2.209560   -0.609025    0.000219
      9          6           0       -0.000008   -1.214645    0.000095
     10          1           0       -0.000069   -1.876418    0.876555
     11          1           0        0.000015   -1.876592   -0.876232
 ---------------------------------------------------------------------
 Rotational constants (GHZ):           8.4791958           8.2354509           4.2875160
 Standard basis: 6-311G(d,p) (5D, 7F)
 There are   131 symmetry adapted cartesian basis functions of A   symmetry.
 There are   126 symmetry adapted basis functions of A   symmetry.
   126 basis functions,   208 primitive gaussians,   131 cartesian basis functions
    18 alpha electrons       18 beta electrons
       nuclear repulsion energy       156.7052999945 Hartrees.
 NAtoms=   11 NActive=   11 NUniq=   11 SFac= 1.00D+00 NAtFMM=   60 NAOKFM=F Big=F
 Integral buffers will be    131072 words long.
 Raffenetti 2 integral format.
 Two-electron integral symmetry is turned on.
 Nuclear repulsion after empirical dispersion term =      156.6904290067 Hartrees.
 Force inversion solution in PCM.
 ------------------------------------------------------------------------------
 Polarizable Continuum Model (PCM)
 =================================
 Model                : PCM.
 Atomic radii         : UFF (Universal Force Field).
 Polarization charges : Total charges.
 Charge compensation  : None.
 Solution method      : Matrix inversion.
 Cavity type          : Scaled VdW (van der Waals Surface) (Alpha=1.100).
 Cavity algorithm     : GePol (No added spheres)
                        Default sphere list used, NSphG=   11.
                        Lebedev-Laikov grids with approx.  5.0 points / Ang**2.
                        Smoothing algorithm: York/Karplus (Gamma=1.0000).
                        Polarization charges: spherical gaussians, with
                                              point-specific exponents (IZeta= 3).
                        Self-potential: point-specific (ISelfS= 7).
                        Self-field    : sphere-specific E.n sum rule (ISelfD= 2).
 1st derivatives      : Analytical E(r).r(x)/FMM algorithm (CHGder, D1EAlg=3).
                        Cavity 1st derivative terms included.
 2nd derivatives      : Analytical E(r).r(xy)/FMM algorithm (CHGder, D2EAlg=3).
                        Cavity 2nd derivative terms included.
 Solvent              : Cis-Decalin, Eps=   2.213900 Eps(inf)=   2.193361
 ------------------------------------------------------------------------------
 Spheres list:
 ISph  on   Nord     Re0    Alpha      Xe            Ye            Ze
    1   C      1    1.9255  1.100     -1.179415     -0.281335      0.000008
    2   C      2    1.9255  1.100     -0.734271      0.989275     -0.000128
    3   C      3    1.9255  1.100      0.734294      0.989258     -0.000120
    4   C      4    1.9255  1.100      1.179406     -0.281363      0.000127
    5   H      5    1.4430  1.100     -2.209569     -0.608995      0.000025
    6   H      6    1.4430  1.100     -1.346219      1.881957     -0.000248
    7   H      7    1.4430  1.100      1.346248      1.881935     -0.000212
    8   H      8    1.4430  1.100      2.209560     -0.609025      0.000219
    9   C      9    1.9255  1.100     -0.000008     -1.214645      0.000095
   10   H     10    1.4430  1.100     -0.000069     -1.876418      0.876555
   11   H     11    1.4430  1.100      0.000015     -1.876592     -0.876232
 ------------------------------------------------------------------------------
 One-electron integrals computed using PRISM.
 NBasis=   126 RedAO= T EigKep=  7.44D-04  NBF=   126
 NBsUse=   126 1.00D-06 EigRej= -1.00D+00 NBFU=   126
 Initial guess from the checkpoint file:  "01.chk"
 B after Tr=    -0.000000    0.000000    0.000000
         Rot=    1.000000   -0.000000   -0.000000    0.000000 Ang=   0.00 deg.
 Keep R1 ints in memory in canonical form, NReq=154187299.
 Requested convergence on RMS density matrix=1.00D-08 within 128 cycles.
 Requested convergence on MAX density matrix=1.00D-06.
 Requested convergence on             energy=1.00D-06.
 No special actions if energy rises.
 Inv3:  Mode=1 IEnd=     2898867.
 Iteration    1 A*A^-1 deviation from unit magnitude is 4.88D-15 for    230.
 Iteration    1 A*A^-1 deviation from orthogonality  is 2.52D-15 for    611    230.
 Iteration    1 A^-1*A deviation from unit magnitude is 4.00D-15 for    230.
 Iteration    1 A^-1*A deviation from orthogonality  is 3.85D-15 for    734    485.
 Error on total polarization charges =  0.00545
 SCF Done:  E(RB3LYP) =  -194.169531470     A.U. after    1 cycles
            NFock=  1  Conv=0.49D-09     -V/T= 2.0046
 DoSCS=F DFT=T ScalE2(SS,OS)=  1.000000  1.000000
 Range of M.O.s used for correlation:     1   126
 NBasis=   126 NAE=    18 NBE=    18 NFC=     0 NFV=     0
 NROrb=    126 NOA=    18 NOB=    18 NVA=   108 NVB=   108

 **** Warning!!: The largest alpha MO coefficient is  0.13709961D+02

 Symmetrizing basis deriv contribution to polar:
 IMax=3 JMax=2 DiffMx= 0.00D+00
 G2DrvN: will do    12 centers at a time, making    1 passes.
 Calling FoFCou, ICntrl=  3107 FMM=F I1Cent=   0 AccDes= 0.00D+00.
 NEqPCM:  Using equilibrium solvation (IEInf=0, Eps=   2.2139, EpsInf=   2.1934)
 G2PCM: DoFxE=T DoFxN=T DoGrad=T DoDP/DQ/DG/TGxP=FFFF NFrqRd=   0 IEInf=0 SqF1=F DoCFld=F IF1Alg=4.
 End of G2Drv F.D. properties file   721 does not exist.
 End of G2Drv F.D. properties file   722 does not exist.
 End of G2Drv F.D. properties file   788 does not exist.
          IDoAtm=11111111111
 NEqPCM:  Using equilibrium solvation (IEInf=0, Eps=   2.2139, EpsInf=   2.1934)
          Differentiating once with respect to electric field.
                with respect to dipole field.
          Differentiating once with respect to nuclear coordinates.
 Keep R1 ints in memory in canonical form, NReq=153748617.
[...]
   A14        1.95404   0.00002   0.00000  -0.00005  -0.00005   1.95399
   A15        1.95411   0.00002   0.00000  -0.00012  -0.00012   1.95399
   A16        1.95406   0.00002   0.00000  -0.00007  -0.00007   1.95399
   A17        1.95413   0.00002   0.00000  -0.00014  -0.00014   1.95399
   A18        1.84794   0.00002   0.00000   0.00095   0.00095   1.84889
    D1       -3.14158  -0.00000   0.00000  -0.00002  -0.00002   3.14159
    D2       -0.00001   0.00000   0.00000   0.00001   0.00001  -0.00000
    D3       -0.00001   0.00000   0.00000   0.00001   0.00001   0.00000
    D4        3.14156   0.00000   0.00000   0.00004   0.00004  -3.14159
    D5        0.00009  -0.00000   0.00000  -0.00009  -0.00009  -0.00000
    D6        2.10551  -0.00003   0.00000  -0.00058  -0.00058   2.10493
    D7       -2.10545   0.00003   0.00000   0.00052   0.00052  -2.10493
    D8       -3.14153  -0.00000   0.00000  -0.00007  -0.00007  -3.14159
    D9       -1.03611  -0.00002   0.00000  -0.00055  -0.00055  -1.03666
   D10        1.03611   0.00003   0.00000   0.00055   0.00055   1.03666
   D11       -0.00008   0.00000   0.00000   0.00008   0.00008   0.00000
   D12       -3.14159   0.00000   0.00000  -0.00000  -0.00000   3.14159
   D13        3.14153   0.00000   0.00000   0.00006   0.00006  -3.14159
   D14        0.00002  -0.00000   0.00000  -0.00002  -0.00002  -0.00000
   D15       -3.14156  -0.00000   0.00000  -0.00003  -0.00003   3.14159
   D16        0.00014  -0.00001   0.00000  -0.00014  -0.00014  -0.00000
   D17       -0.00006   0.00000   0.00000   0.00006   0.00006   0.00000
   D18       -3.14154  -0.00000   0.00000  -0.00006  -0.00006  -3.14159
   D19       -0.00015   0.00001   0.00000   0.00015   0.00015   0.00000
   D20       -2.10555   0.00003   0.00000   0.00062   0.00062  -2.10493
   D21        2.10538  -0.00002   0.00000  -0.00045  -0.00045   2.10493
   D22        3.14156   0.00000   0.00000   0.00003   0.00003  -3.14159
   D23        1.03615   0.00002   0.00000   0.00051   0.00051   1.03666
   D24       -1.03610  -0.00003   0.00000  -0.00056  -0.00056  -1.03666
         Item               Value     Threshold  Converged?
 Maximum Force            0.000248     0.000450     YES
 RMS     Force            0.000074     0.000300     YES
 Maximum Displacement     0.001084     0.001800     YES
 RMS     Displacement     0.000292     0.001200     YES
 Predicted change in Energy=-5.033384D-07
 Optimization completed.
    -- Stationary point found.
                           ----------------------------
                           !   Optimized Parameters   !
                           ! (Angstroms and Degrees)  !
 --------------------------                            --------------------------
 ! Name  Definition              Value          Derivative Info.                !
 --------------------------------------------------------------------------------
 ! R1    R(1,2)                  1.3463         -DE/DX =    0.0002              !
 ! R2    R(1,5)                  1.081          -DE/DX =    0.0001              !
 ! R3    R(1,9)                  1.504          -DE/DX =    0.0002              !
 ! R4    R(2,3)                  1.4686         -DE/DX =    0.0002              !
 ! R5    R(2,6)                  1.0823         -DE/DX =    0.0001              !
 ! R6    R(3,4)                  1.3463         -DE/DX =    0.0002              !
 ! R7    R(3,7)                  1.0823         -DE/DX =    0.0001              !
 ! R8    R(4,8)                  1.081          -DE/DX =    0.0001              !
 ! R9    R(4,9)                  1.504          -DE/DX =    0.0002              !
 ! R10   R(9,10)                 1.0982         -DE/DX =    0.0                 !
 ! R11   R(9,11)                 1.0982         -DE/DX =    0.0                 !
 ! A1    A(2,1,5)              126.9516         -DE/DX =   -0.0001              !
 ! A2    A(2,1,9)              109.0486         -DE/DX =    0.0001              !
 ! A3    A(5,1,9)              123.9998         -DE/DX =   -0.0001              !
 ! A4    A(1,2,3)              109.3067         -DE/DX =   -0.0001              !
 ! A5    A(1,2,6)              126.2614         -DE/DX =    0.0                 !
 ! A6    A(3,2,6)              124.4319         -DE/DX =    0.0                 !
 ! A7    A(2,3,4)              109.3066         -DE/DX =   -0.0001              !
 ! A8    A(2,3,7)              124.431          -DE/DX =    0.0                 !
 ! A9    A(4,3,7)              126.2624         -DE/DX =    0.0                 !
 ! A10   A(3,4,8)              126.9502         -DE/DX =   -0.0001              !
 ! A11   A(3,4,9)              109.049          -DE/DX =    0.0001              !
 ! A12   A(8,4,9)              124.0007         -DE/DX =   -0.0001              !
 ! A13   A(1,9,4)              103.2891         -DE/DX =   -0.0001              !
 ! A14   A(1,9,10)             111.9581         -DE/DX =    0.0                 !
 ! A15   A(1,9,11)             111.9622         -DE/DX =    0.0                 !
 ! A16   A(4,9,10)             111.9591         -DE/DX =    0.0                 !
 ! A17   A(4,9,11)             111.9636         -DE/DX =    0.0                 !
 ! A18   A(10,9,11)            105.8792         -DE/DX =    0.0                 !
 ! D1    D(5,1,2,3)            180.0009         -DE/DX =    0.0                 !
 ! D2    D(5,1,2,6)             -0.0005         -DE/DX =    0.0                 !
 ! D3    D(9,1,2,3)             -0.0008         -DE/DX =    0.0                 !
 ! D4    D(9,1,2,6)           -180.0021         -DE/DX =    0.0                 !
 ! D5    D(2,1,9,4)              0.0054         -DE/DX =    0.0                 !
 ! D6    D(2,1,9,10)           120.6368         -DE/DX =    0.0                 !
 ! D7    D(2,1,9,11)          -120.6334         -DE/DX =    0.0                 !
 ! D8    D(5,1,9,4)           -179.9962         -DE/DX =    0.0                 !
 ! D9    D(5,1,9,10)           -59.3648         -DE/DX =    0.0                 !
 ! D10   D(5,1,9,11)            59.3649         -DE/DX =    0.0                 !
 ! D11   D(1,2,3,4)             -0.0048         -DE/DX =    0.0                 !
 ! D12   D(1,2,3,7)            180.0001         -DE/DX =    0.0                 !
 ! D13   D(6,2,3,4)           -180.0035         -DE/DX =    0.0                 !
 ! D14   D(6,2,3,7)              0.0014         -DE/DX =    0.0                 !
 ! D15   D(2,3,4,8)            180.0016         -DE/DX =    0.0                 !
 ! D16   D(2,3,4,9)              0.0083         -DE/DX =    0.0                 !
 ! D17   D(7,3,4,8)             -0.0034         -DE/DX =    0.0                 !
 ! D18   D(7,3,4,9)           -179.9968         -DE/DX =    0.0                 !
 ! D19   D(3,4,9,1)             -0.0084         -DE/DX =    0.0                 !
 ! D20   D(3,4,9,10)          -120.6391         -DE/DX =    0.0                 !
 ! D21   D(3,4,9,11)           120.6295         -DE/DX =    0.0                 !
 ! D22   D(8,4,9,1)           -180.002          -DE/DX =    0.0                 !
 ! D23   D(8,4,9,10)            59.3673         -DE/DX =    0.0                 !
 ! D24   D(8,4,9,11)           -59.3641         -DE/DX =    0.0                 !
 --------------------------------------------------------------------------------
 GradGradGradGradGradGradGradGradGradGradGradGradGradGradGradGradGradGrad


 ----------------------------------------------------------------------

 Electric dipole moment (input orientation):
 (Debye = 10**-18 statcoulomb cm , SI units = C m)
                  (au)            (Debye)         (10**-30 SI)
   Tot        0.212510D+00      0.540147D+00      0.180174D+01
   x          0.618820D-04      0.157288D-03      0.524658D-03
   y         -0.212510D+00     -0.540147D+00     -0.180174D+01
   z          0.000000D+00      0.000000D+00      0.000000D+00

 Dipole polarizability, Alpha (input orientation).
 (esu units = cm**3 , SI units = C**2 m**2 J**-1)
 Alpha(0;0):
               (au)            (10**-24 esu)      (10**-40 SI)
   iso        0.561334D+02      0.831812D+01      0.925516D+01
   aniso      0.360298D+02      0.533907D+01      0.594052D+01
   xx         0.641876D+02      0.951162D+01      0.105831D+02
   yx        -0.228462D-02     -0.338546D-03     -0.376683D-03
   yy         0.717039D+02      0.106254D+02      0.118224D+02
   zx         0.137152D-02      0.203238D-03      0.226133D-03
   zy        -0.514778D-02     -0.762822D-03     -0.848754D-03
   zz         0.325088D+02      0.481731D+01      0.535998D+01

 ----------------------------------------------------------------------

 Dipole orientation:
     6         -2.22877299         -0.00062479          0.53219991
     6         -1.38764081         -0.00066978         -1.86892883
     6          1.38754385          0.00015255         -1.86897654
     6          2.22875307          0.00089780          0.53212510
     1         -4.17546405         -0.00115078          1.15144403
     1         -2.54410347         -0.00125742         -3.55581974
     1          2.54392101          0.00029108         -3.55592556
     1          4.17548019          0.00164781          1.15125946
     6          0.00003493          0.00021452          2.29583712
     1         -0.00052688          1.65650083          3.54638223
     1          0.00059604         -1.65578601          3.54675856

 Electric dipole moment (dipole orientation):
 (Debye = 10**-18 statcoulomb cm , SI units = C m)
                  (au)            (Debye)         (10**-30 SI)
   Tot        0.212510D+00      0.540147D+00      0.180174D+01
   x          0.000000D+00      0.000000D+00      0.000000D+00
   y          0.000000D+00      0.000000D+00      0.000000D+00
   z          0.212510D+00      0.540147D+00      0.180174D+01

 Dipole polarizability, Alpha (dipole orientation).
 (esu units = cm**3 , SI units = C**2 m**2 J**-1)
 Alpha(0;0):
               (au)            (10**-24 esu)      (10**-40 SI)
   iso        0.561334D+02      0.831812D+01      0.925516D+01
   aniso      0.360298D+02      0.533907D+01      0.594052D+01
   xx         0.641876D+02      0.951162D+01      0.105831D+02
   yx         0.105947D-01      0.156998D-02      0.174684D-02
   yy         0.325088D+02      0.481731D+01      0.535998D+01
   zx         0.942255D-04      0.139628D-04      0.155357D-04
   zy         0.570131D-02      0.844847D-03      0.940019D-03
   zz         0.717039D+02      0.106254D+02      0.118224D+02

 ----------------------------------------------------------------------
 1\1\GINC-NODE05\Freq\RB3LYP\6-311G(d,p)\C5H6\HONGCHANG\23-Jul-2025\0\\
 #N Geom=AllCheck Guess=TCheck SCRF=Check GenChk RB3LYP/6-311G(d,p) Fre
 q\\01\\0,1\C,-1.1793338631,-0.2819714909,0.0000088441\C,-0.7345959277,
 0.9887806785,-0.0001266484\C,0.733968546,0.989233565,-0.0001191291\C,1
 .1794873696,-0.2812450307,0.0001276855\H,-2.2093829792,-0.6099613297,0
 .0000258484\H,-1.3468295903,1.8812666652,-0.0002468139\H,1.3456370081,
 1.882106697,-0.0002114141\H,2.209746429,-0.6085768318,0.0002199703\C,0
 .0003722913,-1.2149046306,0.0000963669\H,0.0005229233,-1.8766769521,0.
 8765560517\H,0.0006067931,-1.87685134,-0.8762307614\\Version=ES64L-G16
 RevA.03\State=1-A\HF=-194.1695315\RMSD=4.855e-10\RMSF=1.145e-04\ZeroPo
 int=0.0921534\Thermal=0.0963096\Dipole=0.0000619,-0.2125103,-0.000003\
 DipoleDeriv=-0.1093016,-0.0274655,-0.0000131,-0.0495175,0.1253906,-0.0
 0004,0.0000202,-0.0000315,-0.2717049,0.129387,-0.1501713,0.0000217,-0.
 17418,-0.0443831,-0.0000204,0.0000295,-0.0000328,-0.1659958,0.1291985,
 0.1502733,-0.0000069,0.1742848,-0.0441845,-0.0000154,-0.0000079,-0.000
 0031,-0.1659944,-0.1093427,0.0273195,0.0000262,0.0493736,0.1254347,-0.
 0000407,-0.0000461,0.0000105,-0.2717042,-0.09498,-0.044102,0.0000016,-
 0.0297044,0.0682645,0.0000077,-0.0000079,0.0000056,0.1633367,0.00077,0
 .1066056,-0.0000135,0.097669,-0.0501059,0.0000274,-0.00001,0.0000361,0
 .1698104,0.0008992,-0.1065705,0.0000077,-0.0976378,-0.0502308,0.000026
 6,0.0000042,0.0000052,0.1698108,-0.0950297,0.0440017,-0.0000225,0.0296
 006,0.0683125,0.0000119,0.0000135,-0.0000013,0.1633358,-0.046284,0.000
 0691,-0.0000173,0.0000665,-0.2407231,0.0000416,-0.0000092,0.0000115,0.
 2459908,0.0973422,0.0000161,-0.0000158,0.0000183,0.021116,0.0840705,-0
 .0000321,0.1267766,-0.0184773,0.0973412,0.0000241,0.0000321,0.0000268,
 0.021109,-0.084069,0.0000458,-0.1267768,-0.0184079\Polar=64.1876128,-0
 .0022846,71.7039193,0.0013715,-0.0051478,32.5088161\Quadrupole=0.67999
 73,1.8266332,-2.5066305,-0.000303,0.0001026,-0.0004409\PG=C01 [X(C5H6)
 ]\NImag=0\\0.70581636,0.15695509,0.68383079,-0.00000598,-0.00005653,0.
 13540635,-0.13640758,-0.10221056,0.00001057,0.56360913,-0.11351213,-0.
 43906722,0.00003976,-0.05611781,0.84415522,0.00001156,0.00004166,-0.06
 149361,0.00001387,-0.00008546,0.12721068,-0.04304583,-0.05211474,0.000
 00446,-0.22260736,0.01041533,-0.00000093,0.56353525,-0.02644123,0.0023
 4828,0.00000088,-0.01048958,-0.10263870,0.00000352,0.05594387,0.844230
 42,0.00000088,-0.00000014,0.01100988,-0.00000119,0.00000513,-0.0580279
 1,0.00001228,-0.00010553,0.12721094,-0.05804085,-0.00108411,-0.0000034
 8,-0.04309452,0.02641350,-0.00000702,-0.13654060,0.11369784,-0.0000234
 1,0.70602219,0.00105525,-0.01126177,0.00000268,0.05208667,0.00239696,0
 .00000462,0.10239651,-0.43893461,0.00007057,-0.15692577,0.68363999,-0.
 00000238,0.00000297,0.00872153,-0.00000705,0.00000138,0.01101002,-0.00
 002306,0.00006852,-0.06149372,0.00005518,-0.00008831,0.13540592,-0.319
 12336,-0.08493112,0.00000471,-0.00276459,0.00298650,-0.00000055,0.0000
 6431,-0.00151551,0.00000007,-0.00162665,0.00256693,-0.00000017,0.33358
 867,-0.08185668,-0.08297531,0.00000353,-0.02754046,0.00017948,-0.00000
 002,-0.00120260,-0.00511863,0.00000135,0.00323858,-0.00388904,0.000000
 32,0.09161770,0.07822809,0.00000354,0.00000292,-0.02863810,0.00000382,
 0.00000111,0.00487283,-0.00000050,0.00000185,0.00732821,-0.00000106,-0
 .00000041,-0.00054646,-0.00000469,-0.00000407,0.02079696,0.01117495,-0
 .01067852,0.00000117,-0.14981630,0.13289415,-0.00001699,-0.00494511,0.
 02295678,-0.00000289,-0.00577621,0.00025686,-0.00000029,0.00027177,0.0
 0090363,-0.00000008,0.14915562,0.02006136,-0.01348848,0.00000224,0.131
 30994,-0.24960989,0.00002862,-0.00471269,0.00608261,-0.00000076,-0.001
 82713,-0.00043995,0.00000009,-0.00056475,0.00081166,-0.00000080,-0.144
 40453,0.26128940,-0.00000207,0.00000119,0.00406326,-0.00001725,0.00002
 972,-0.03629006,0.00000005,-0.00000053,0.00031621,0.00000020,-0.000000
 13,0.00170402,0.00000009,-0.00000056,-0.00526901,0.00001913,-0.0000313
 2,0.02437551,-0.00577720,-0.00026026,-0.00000002,-0.00493439,-0.022964
 04,0.00000212,-0.14964943,-0.13283093,0.00001302,0.01118074,0.01069384
 ,-0.00000069,-0.00018883,-0.00144860,0.00000018,0.00045982,0.00081325,
 -0.00000005,0.14897419,0.00182372,-0.00043898,0.00000026,0.00470580,0.
 00607116,-0.00000076,-0.13124747,-0.24977759,0.00002385,-0.02004568,-0
 .01349334,0.00000019,0.00004610,0.00044244,0.00000009,-0.00081287,-0.0
 0011834,-0.00000007,0.14433419,0.26147144,-0.00000037,0.00000009,0.001
 70400,-0.00000023,-0.00000110,0.00031649,0.00001158,0.00002140,-0.0362
 9002,0.00000399,0.00000405,0.00406293,0.00000003,0.,0.00063865,0.00000
 010,-0.00000003,-0.00064842,-0.00001398,-0.00002555,0.02437553,-0.0016
 2298,-0.00256553,0.00000015,0.00006266,0.00151871,-0.00000066,-0.00278
 046,-0.00298788,0.00000055,-0.31922795,0.08477971,-0.00002700,-0.00050
 214,0.00078059,-0.00000036,-0.00018970,-0.00004651,-0.00000013,0.00027
 201,0.00056438,0.00000026,0.33370384,-0.00323713,-0.00389269,0.,0.0012
 0602,-0.00511697,0.00000211,0.02753941,0.00019432,0.00000107,0.0817046
 7,-0.08286908,0.00001090,-0.00078158,0.00109789,0.00000006,0.00144822,
 0.00044332,0.00000006,-0.00090400,0.00081144,-0.00000080,-0.09145467,0
 .07811214,0.00000116,-0.00000045,-0.00054646,0.00000010,0.00000281,0.0
 0732829,-0.00000622,0.00000091,0.00487317,-0.00002314,0.00000925,-0.02
 863858,0.,0.00000015,0.00213437,-0.00000035,-0.00000002,0.00063866,0.0
 0000039,-0.00000085,-0.00526904,0.00002798,-0.00001157,0.02079718,-0.1
 5631171,0.06405855,-0.00000762,0.00401679,0.01301222,-0.00000093,0.004
 02913,-0.01297683,0.00000056,-0.15625384,-0.06409558,0.00000071,-0.009
 72983,0.01688301,-0.00000091,-0.00119814,-0.00173019,0.00000013,-0.001
 20081,0.00173166,-0.00000142,-0.00972539,-0.01689570,0.00000035,0.4068
 2309,0.04632850,-0.11040396,0.00000360,0.00473952,-0.05395250,0.000005
 39,-0.00470348,-0.05396380,0.00000447,-0.04636641,-0.11047917,-0.00000
 019,-0.01002993,0.01069576,-0.00000068,-0.00243574,-0.00357672,0.00000
 168,0.00243716,-0.00357404,0.00000187,0.01001723,0.01069158,-0.0000000
 8,-0.00003749,0.57005530,-0.00000631,0.00000266,-0.07115095,-0.0000010
 9,0.00000653,0.00491878,0.00000141,0.00000935,0.00491878,-0.00000166,-
 0.00000537,-0.07115046,0.00000066,-0.00000067,-0.00192804,0.00000014,0
 .00000178,0.01187062,-0.00000100,0.00000283,0.01187071,-0.00000089,-0.
 00000197,-0.00192816,-0.00000645,0.00000340,0.51223048,0.00166947,0.01
 641487,-0.02129334,-0.00403184,0.00267725,0.00216557,-0.00403008,-0.00
 267908,-0.00216603,0.00167725,-0.01640597,0.02128574,0.00000543,-0.000
 68763,0.00093839,0.00043161,0.00055087,0.00196072,0.00043208,-0.000550
 30,-0.00195976,0.00000519,0.00068736,-0.00093813,-0.04022482,0.0000193
 6,-0.00003036,0.04348732,-0.00058858,-0.01232467,0.01304364,0.00115486
 ,-0.00120895,0.00071309,-0.00115694,-0.00121184,0.00071170,0.00059611,
 -0.01233432,0.01305680,0.00030277,0.00026392,-0.00068246,-0.00006398,-
 0.00069703,-0.00154044,0.00006478,-0.00069743,-0.00154161,-0.00030290,
 0.00026410,-0.00068302,0.00001886,-0.12772127,0.12799474,-0.00002263,0
 .14461298,-0.00037690,-0.00104528,0.00045986,-0.00043529,-0.00075966,0
 .00007737,0.00043548,-0.00075967,0.00007714,0.00037778,-0.00104648,0.0
 0046227,-0.00043598,0.00051288,0.00030541,-0.00002288,-0.00011746,-0.0
 0038015,0.00002299,-0.00011754,-0.00038032,0.00043563,0.00051324,0.000
 30533,-0.00002865,0.12360104,-0.19984892,0.00003125,-0.13592370,0.2219
 5302,0.00166871,0.01641635,0.02128939,-0.00403200,0.00267631,-0.002166
 04,-0.00402982,-0.00267745,0.00216617,0.00168043,-0.01640847,-0.021280
 98,0.00000521,-0.00068753,-0.00093832,0.00043169,0.00055038,-0.0019608
 2,0.00043183,-0.00054952,0.00195980,0.00000492,0.00068739,0.00093785,-
 0.04022446,0.00003130,0.00004556,0.00057839,-0.00000236,-0.00000342,0.
 04348511,-0.00058817,-0.01232599,-0.01304007,0.00115559,-0.00120858,-0
 .00071278,-0.00115719,-0.00121045,-0.00071172,0.00059841,-0.01233566,-
 0.01305268,0.00030289,0.00026374,0.00068238,-0.00006399,-0.00069657,0.
 00154042,0.00006460,-0.00069677,0.00154169,-0.00030313,0.00026395,0.00
 068288,0.00003149,-0.12777118,-0.12801327,-0.00000410,0.01105451,0.015
 14264,-0.00003640,0.14466300,0.00037688,0.00105091,0.00046425,0.000433
 74,0.00075980,0.00007714,-0.00043455,0.00075931,0.00007732,-0.00037738
 ,0.00104952,0.00046252,0.00043584,-0.00051292,0.00030517,0.00002293,0.
 00011765,-0.00038065,-0.00002296,0.00011756,-0.00038051,-0.00043552,-0
 .00051311,0.00030525,0.00004423,-0.12362049,-0.19980285,0.00000597,-0.
 01514873,-0.02303103,-0.00004919,0.13594049,0.22190338\\-0.00001991,0.
 00003245,0.00000740,0.00023729,-0.00019384,0.00000517,-0.00023315,-0.0
 0019531,-0.00001115,0.00001263,0.00002817,0.00001793,0.00004887,0.0000
 1358,0.00000014,0.00003775,-0.00004444,-0.00000090,-0.00003929,-0.0000
 4343,-0.00000076,-0.00004817,0.00001512,0.00000055,0.00000574,0.000476
 29,-0.00001918,0.,-0.00004135,-0.00001000,-0.00000175,-0.00004723,0.00
 001080\\\@


 YOU CANNOT THROW TO THE GROUND THE LETTERS OF
 THE GREEK ALPHABET AND PICK UP THE ILIAD.
        - RUFUS CHOATE, 1799-1859
 Job cpu time:       0 days  0 hours 40 minutes 41.4 seconds.
 Elapsed time:       0 days  0 hours  0 minutes 22.8 seconds.
 File lengths (MBytes):  RWF=    114 Int=      0 D2E=      0 Chk=      7 Scr=      2
 Normal termination of Gaussian 16 at Wed Jul 23 23:12:43 2025.
