 Initial command:
 /home/hongchang/data/software/Gaussian/g16/l1.exe "/home/hongchang/data/software/Gaussian/g16/scratch/Gau-2638901.inp" -scrdir="/home/hongchang/data/software/Gaussian/g16/scratch/"
 Entering Link 1 = /home/hongchang/data/software/Gaussian/g16/l1.exe PID=   2651023.
  
 Copyright (c) 1988,1990,1992,1993,1995,1998,2003,2009,2016,
            Gaussian, Inc.  All Rights Reserved.
  
 This is part of the Gaussian(R) 16 program.  It is based on
 the Gaussian(R) 09 system (copyright 2009, Gaussian, Inc.),
 the Gaussian(R) 03 system (copyright 2003, Gaussian, Inc.),
 the Gaussian(R) 98 system (copyright 1998, Gaussian, Inc.),
 the Gaussian(R) 94 system (copyright 1995, Gaussian, Inc.),
 the Gaussian 92(TM) system (copyright 1992, Gaussian, Inc.),
 the Gaussian 90(TM) system (copyright 1990, Gaussian, Inc.),
 the Gaussian 88(TM) system (copyright 1988, Gaussian, Inc.),
 the Gaussian 86(TM) system (copyright 1986, Carnegie Mellon
 University), and the Gaussian 82(TM) system (copyright 1983,
 Carnegie Mellon University). Gaussian is a federally registered
 trademark of Gaussian, Inc.
  
 This software contains proprietary and confidential information,
 including trade secrets, belonging to Gaussian, Inc.
  
 This software is provided under written license and may be
 used, copied, transmitted, or stored only in accord with that
 written license.
  
 The following legend is applicable only to US Government
 contracts under FAR:
  
                    RESTRICTED RIGHTS LEGEND
  
 Use, reproduction and disclosure by the US Government is
 subject to restrictions as set forth in subparagraphs (a)
 and (c) of the Commercial Computer Software - Restricted
 Rights clause in FAR 52.227-19.
  
 Gaussian, Inc.
 340 Quinnipiac St., Bldg. 40, Wallingford CT 06492
  
  
 ---------------------------------------------------------------
 Warning -- This program may not be used in any manner that
 competes with the business of Gaussian, Inc. or will provide
 assistance to any competitor of Gaussian, Inc.  The licensee
 of this program is prohibited from giving any competitor of
 Gaussian, Inc. access to this program.  By using this program,
 the user acknowledges that Gaussian, Inc. is engaged in the
 business of creating and licensing software in the field of
 computational chemistry and represents and warrants to the
 licensee that it is not a competitor of Gaussian, Inc. and that
 it will not use this program in any manner prohibited above.
 ---------------------------------------------------------------
  

 Cite this work as:
 Gaussian 16, Revision A.03,
 M. J. Frisch, G. W. Trucks, H. B. Schlegel, G. E. Scuseria, 
 M. A. Robb, J. R. Cheeseman, G. Scalmani, V. Barone, 
 G. A. Petersson, H. Nakatsuji, X. Li, M. Caricato, A. V. Marenich, 
 J. Bloino, B. G. Janesko, R. Gomperts, B. Mennucci, H. P. Hratchian, 
 J. V. Ortiz, A. F. Izmaylov, J. L. Sonnenberg, D. Williams-Young, 
 F. Ding, F. Lipparini, F. Egidi, J. Goings, B. Peng, A. Petrone, 
 T. Henderson, D. Ranasinghe, V. G. Zakrzewski, J. Gao, N. Rega, 
 G. Zheng, W. Liang, M. Hada, M. Ehara, K. Toyota, R. Fukuda, 
 J. Hasegawa, M. Ishida, T. Nakajima, Y. Honda, O. Kitao, H. Nakai, 
 T. Vreven, K. Throssell, J. A. Montgomery, Jr., J. E. Peralta, 
 F. Ogliaro, M. J. Bearpark, J. J. Heyd, E. N. Brothers, K. N. Kudin, 
 V. N. Staroverov, T. A. Keith, R. Kobayashi, J. Normand, 
 K. Raghavachari, A. P. Rendell, J. C. Burant, S. S. Iyengar, 
 J. Tomasi, M. Cossi, J. M. Millam, M. Klene, C. Adamo, R. Cammi, 
 J. W. Ochterski, R. L. Martin, K. Morokuma, O. Farkas, 
 J. B. Foresman, and D. J. Fox, Gaussian, Inc., Wallingford CT, 2016.
 
 ******************************************
 Gaussian 16:  ES64L-G16RevA.03 25-Dec-2016
                23-Jul-2025 
 ******************************************
 %nproc=112
 Will use up to  112 processors via shared memory.
 %mem=650GB
 %oldchk=01_02.chk
 %chk=01_02_2.chk
 Copying data from "01_02.chk" to current chk file "01_02_2.chk"
 IOpt=  2 FromEx=T IUOpen= 4 IOptOp= 5 NList=   0 IFRang= 0 IUIn= 4 IUOut= 2.
 --------------------------------------------------------
 #p m052x/6-31g* scrf(SMD,solvent=Cis-Decalin) geom=check
 --------------------------------------------------------
 1/29=2,38=1,172=1/1;
 2/12=2,40=1/2;
 3/5=1,6=6,7=1,11=2,14=-4,25=1,30=1,70=32201,72=99,74=-38/1,2,3;
 4//1;
 5/5=2,38=5,53=99/2;
 6/7=2,8=2,9=2,10=2,28=1/1;
 99/5=1,9=1/99;
 Leave Link    1 at Wed Jul 23 23:16:38 2025, MaxMem= 87241523200 cpu:              17.5 elap:               0.2
 (Enter /home/hongchang/data/software/Gaussian/g16/l101.exe)
 -----
 01_02
 -----
 Structure from the checkpoint file:  "01_02_2.chk"
 Charge =  0 Multiplicity = 1
 Redundant internal coordinates found in file.  (old form).
 C,0,-1.3604040456,-1.172936516,0.6636339645
 C,0,-0.7219551707,-0.1145291854,1.3614424359
 C,0,-0.7918482477,1.0555985857,0.5624295946
 C,0,0.7918591201,1.0555474269,-0.5625217596
 C,0,0.7219704233,-0.114664125,-1.3614119354
 C,0,-1.9167971123,-0.7028846186,-0.4937349854
 C,0,1.3604591515,-1.1729878408,-0.6635076408
 C,0,1.9168719074,-0.7028073001,0.4937967637
 C,0,1.8801216942,0.8001118423,0.4730280694
 C,0,-1.8800957378,0.8000370986,-0.4731049985
 H,0,-1.3397548249,-2.2104554383,0.9720660548
 H,0,-0.2516837308,-0.194456067,2.3296460166
 H,0,-0.6909063864,2.0396464013,1.0074748418
 H,0,0.6908958861,2.0395474775,-1.0076661983
 H,0,0.251705222,-0.1946931246,-2.3296095226
 H,0,-2.4446953833,-1.2887877064,-1.2332986739
 H,0,1.3398277808,-2.2105376871,-0.9718355896
 H,0,2.4448012153,-1.2886247686,1.2334071793
 H,0,2.8348315703,1.183204224,0.0817183255
 H,0,1.7115116345,1.274197032,1.4409408938
 H,0,-2.8348198881,1.1831339786,-0.0818332279
 H,0,-1.711495078,1.2740403108,-1.4410596077
 Recover connectivity data from disk.
 ITRead=  0  0  0  0  0  0  0  0  0  0  0  0  0  0  0  0  0  0  0  0
 ITRead=  0  0
 MicOpt= -1 -1 -1 -1 -1 -1 -1 -1 -1 -1 -1 -1 -1 -1 -1 -1 -1 -1 -1 -1
 MicOpt= -1 -1
                           ----------------------------
                           !    Current Parameters    !
                           ! (Angstroms and Degrees)  !
 --------------------------                            --------------------------
 ! Name  Definition              Value                                          !
 --------------------------------------------------------------------------------
 ! R1    R(1,2)                  1.4194                                         !
 ! R2    R(1,6)                  1.3675                                         !
 ! R3    R(1,11)                 1.0826                                         !
 ! R4    R(2,3)                  1.4186                                         !
 ! R5    R(2,12)                 1.0793                                         !
 ! R6    R(3,4)                  1.9426                                         !
 ! R7    R(3,10)                 1.5238                                         !
 ! R8    R(3,13)                 1.0847                                         !
 ! R9    R(4,5)                  1.4186                                         !
 ! R10   R(4,9)                  1.5238                                         !
 ! R11   R(4,14)                 1.0847                                         !
 ! R12   R(5,7)                  1.4194                                         !
 ! R13   R(5,15)                 1.0793                                         !
 ! R14   R(6,10)                 1.5035                                         !
 ! R15   R(6,16)                 1.0812                                         !
 ! R16   R(7,8)                  1.3675                                         !
 ! R17   R(7,17)                 1.0826                                         !
 ! R18   R(8,9)                  1.5035                                         !
 ! R19   R(8,18)                 1.0812                                         !
 ! R20   R(9,19)                 1.1006                                         !
 ! R21   R(9,20)                 1.0909                                         !
 ! R22   R(10,21)                1.1006                                         !
 ! R23   R(10,22)                1.0909                                         !
 ! A1    A(2,1,6)              110.046                                          !
 ! A2    A(2,1,11)             124.4698                                         !
 ! A3    A(6,1,11)             125.3317                                         !
 ! A4    A(1,2,3)              108.4206                                         !
 ! A5    A(1,2,12)             125.574                                          !
 ! A6    A(3,2,12)             126.0                                            !
 ! A7    A(2,3,4)              106.6173                                         !
 ! A8    A(2,3,10)             106.2369                                         !
 ! A9    A(2,3,13)             120.8379                                         !
 ! A10   A(4,3,10)             100.8761                                         !
 ! A11   A(4,3,13)              99.3088                                         !
 ! A12   A(10,3,13)            119.8303                                         !
 ! A13   A(3,4,5)              106.6171                                         !
 ! A14   A(3,4,9)              100.8767                                         !
 ! A15   A(3,4,14)              99.3081                                         !
 ! A16   A(5,4,9)              106.2371                                         !
 ! A17   A(5,4,14)             120.838                                          !
 ! A18   A(9,4,14)             119.8303                                         !
 ! A19   A(4,5,7)              108.4205                                         !
 ! A20   A(4,5,15)             126.0                                            !
 ! A21   A(7,5,15)             125.5741                                         !
 ! A22   A(1,6,10)             108.7872                                         !
 ! A23   A(1,6,16)             126.2511                                         !
 ! A24   A(10,6,16)            124.2643                                         !
 ! A25   A(5,7,8)              110.0461                                         !
 ! A26   A(5,7,17)             124.4698                                         !
 ! A27   A(8,7,17)             125.3317                                         !
 ! A28   A(7,8,9)              108.7874                                         !
 ! A29   A(7,8,18)             126.2511                                         !
 ! A30   A(9,8,18)             124.2643                                         !
 ! A31   A(4,9,8)              101.2103                                         !
 ! A32   A(4,9,19)             108.635                                          !
 ! A33   A(4,9,20)             114.8183                                         !
 ! A34   A(8,9,19)             109.3685                                         !
 ! A35   A(8,9,20)             115.2099                                         !
 ! A36   A(19,9,20)            107.3533                                         !
 ! A37   A(3,10,6)             101.2101                                         !
 ! A38   A(3,10,21)            108.6349                                         !
 ! A39   A(3,10,22)            114.8184                                         !
 ! A40   A(6,10,21)            109.3685                                         !
 ! A41   A(6,10,22)            115.21                                           !
 ! A42   A(21,10,22)           107.3534                                         !
 ! D1    D(6,1,2,3)             -4.4741                                         !
 ! D2    D(6,1,2,12)           176.3331                                         !
 ! D3    D(11,1,2,3)           171.2376                                         !
 ! D4    D(11,1,2,12)           -7.9553                                         !
 ! D5    D(2,1,6,10)           -10.8452                                         !
 ! D6    D(2,1,6,16)           178.4461                                         !
 ! D7    D(11,1,6,10)          173.4884                                         !
 ! D8    D(11,1,6,16)            2.7798                                         !
 ! D9    D(1,2,3,4)            -89.4718                                         !
 ! D10   D(1,2,3,10)            17.5062                                         !
 ! D11   D(1,2,3,13)           158.5178                                         !
 ! D12   D(12,2,3,4)            89.7167                                         !
 ! D13   D(12,2,3,10)         -163.3053                                         !
 ! D14   D(12,2,3,13)          -22.2937                                         !
 ! D15   D(2,3,4,5)             61.1846                                         !
 ! D16   D(2,3,4,9)            -49.577                                          !
 ! D17   D(2,3,4,14)          -172.587                                          !
 ! D18   D(10,3,4,5)           -49.5766                                         !
 ! D19   D(10,3,4,9)          -160.3382                                         !
 ! D20   D(10,3,4,14)           76.6518                                         !
 ! D21   D(13,3,4,5)          -172.5866                                         !
 ! D22   D(13,3,4,9)            76.6518                                         !
 ! D23   D(13,3,4,14)          -46.3582                                         !
 ! D24   D(2,3,10,6)           -22.5273                                         !
 ! D25   D(2,3,10,21)           92.5367                                         !
 ! D26   D(2,3,10,22)         -147.2817                                         !
 ! D27   D(4,3,10,6)            88.5275                                         !
 ! D28   D(4,3,10,21)         -156.4085                                         !
 ! D29   D(4,3,10,22)          -36.2269                                         !
 ! D30   D(13,3,10,6)         -164.0122                                         !
 ! D31   D(13,3,10,21)         -48.9482                                         !
 ! D32   D(13,3,10,22)          71.2334                                         !
 ! D33   D(3,4,5,7)            -89.4733                                         !
 ! D34   D(3,4,5,15)            89.7173                                         !
 ! D35   D(9,4,5,7)             17.5053                                         !
 ! D36   D(9,4,5,15)          -163.3041                                         !
 ! D37   D(14,4,5,7)           158.5172                                         !
 ! D38   D(14,4,5,15)          -22.2922                                         !
 ! D39   D(3,4,9,8)             88.5289                                         !
 ! D40   D(3,4,9,19)          -156.4069                                         !
 ! D41   D(3,4,9,20)           -36.2254                                         !
 ! D42   D(5,4,9,8)            -22.526                                          !
 ! D43   D(5,4,9,19)            92.5382                                         !
 ! D44   D(5,4,9,20)          -147.2803                                         !
 ! D45   D(14,4,9,8)          -164.0112                                         !
 ! D46   D(14,4,9,19)          -48.947                                          !
 ! D47   D(14,4,9,20)           71.2345                                         !
 ! D48   D(4,5,7,8)             -4.4742                                         !
 ! D49   D(4,5,7,17)           171.2379                                         !
 ! D50   D(15,5,7,8)           176.3309                                         !
 ! D51   D(15,5,7,17)           -7.957                                          !
 ! D52   D(1,6,10,3)            20.35                                           !
 ! D53   D(1,6,10,21)          -94.167                                          !
 ! D54   D(1,6,10,22)          144.8398                                         !
 ! D55   D(16,6,10,3)         -168.7144                                         !
 ! D56   D(16,6,10,21)          76.7685                                         !
 ! D57   D(16,6,10,22)         -44.2247                                         !
 ! D58   D(5,7,8,9)            -10.8443                                         !
 ! D59   D(5,7,8,18)           178.4462                                         !
 ! D60   D(17,7,8,9)           173.489                                          !
 ! D61   D(17,7,8,18)            2.7794                                         !
 ! D62   D(7,8,9,4)             20.3486                                         !
 ! D63   D(7,8,9,19)           -94.1687                                         !
 ! D64   D(7,8,9,20)           144.8383                                         !
 ! D65   D(18,8,9,4)          -168.7149                                         !
 ! D66   D(18,8,9,19)           76.7678                                         !
 ! D67   D(18,8,9,20)          -44.2252                                         !
 --------------------------------------------------------------------------------
 NAtoms=     22 NQM=       22 NQMF=       0 NMMI=      0 NMMIF=      0
                NMic=       0 NMicF=      0.
                    Isotopes and Nuclear Properties:
 (Nuclear quadrupole moments (NQMom) in fm**2, nuclear magnetic moments (NMagM)
  in nuclear magnetons)

  Atom         1           2           3           4           5           6           7           8           9          10
 IAtWgt=          12          12          12          12          12          12          12          12          12          12
 AtmWgt=  12.0000000  12.0000000  12.0000000  12.0000000  12.0000000  12.0000000  12.0000000  12.0000000  12.0000000  12.0000000
 NucSpn=           0           0           0           0           0           0           0           0           0           0
 AtZEff=   3.6000000   3.6000000   3.6000000   3.6000000   3.6000000   3.6000000   3.6000000   3.6000000   3.6000000   3.6000000
 NQMom=    0.0000000   0.0000000   0.0000000   0.0000000   0.0000000   0.0000000   0.0000000   0.0000000   0.0000000   0.0000000
 NMagM=    0.0000000   0.0000000   0.0000000   0.0000000   0.0000000   0.0000000   0.0000000   0.0000000   0.0000000   0.0000000
 AtZNuc=   6.0000000   6.0000000   6.0000000   6.0000000   6.0000000   6.0000000   6.0000000   6.0000000   6.0000000   6.0000000

  Atom        11          12          13          14          15          16          17          18          19          20
 IAtWgt=           1           1           1           1           1           1           1           1           1           1
 AtmWgt=   1.0078250   1.0078250   1.0078250   1.0078250   1.0078250   1.0078250   1.0078250   1.0078250   1.0078250   1.0078250
 NucSpn=           1           1           1           1           1           1           1           1           1           1
 AtZEff=   1.0000000   1.0000000   1.0000000   1.0000000   1.0000000   1.0000000   1.0000000   1.0000000   1.0000000   1.0000000
 NQMom=    0.0000000   0.0000000   0.0000000   0.0000000   0.0000000   0.0000000   0.0000000   0.0000000   0.0000000   0.0000000
 NMagM=    2.7928460   2.7928460   2.7928460   2.7928460   2.7928460   2.7928460   2.7928460   2.7928460   2.7928460   2.7928460
 AtZNuc=   1.0000000   1.0000000   1.0000000   1.0000000   1.0000000   1.0000000   1.0000000   1.0000000   1.0000000   1.0000000

  Atom        21          22
 IAtWgt=           1           1
 AtmWgt=   1.0078250   1.0078250
 NucSpn=           1           1
 AtZEff=   1.0000000   1.0000000
 NQMom=    0.0000000   0.0000000
 NMagM=    2.7928460   2.7928460
 AtZNuc=   1.0000000   1.0000000
 Leave Link  101 at Wed Jul 23 23:16:38 2025, MaxMem= 87241523200 cpu:              27.6 elap:               0.3
 (Enter /home/hongchang/data/software/Gaussian/g16/l202.exe)
                          Input orientation:                          
 ---------------------------------------------------------------------
 Center     Atomic      Atomic             Coordinates (Angstroms)
 Number     Number       Type             X           Y           Z
 ---------------------------------------------------------------------
      1          6           0       -1.360404   -1.172937    0.663634
      2          6           0       -0.721955   -0.114529    1.361442
      3          6           0       -0.791848    1.055599    0.562430
      4          6           0        0.791859    1.055547   -0.562522
      5          6           0        0.721970   -0.114664   -1.361412
      6          6           0       -1.916797   -0.702885   -0.493735
      7          6           0        1.360459   -1.172988   -0.663508
      8          6           0        1.916872   -0.702807    0.493797
      9          6           0        1.880122    0.800112    0.473028
     10          6           0       -1.880096    0.800037   -0.473105
     11          1           0       -1.339755   -2.210455    0.972066
     12          1           0       -0.251684   -0.194456    2.329646
     13          1           0       -0.690906    2.039646    1.007475
     14          1           0        0.690896    2.039547   -1.007666
     15          1           0        0.251705   -0.194693   -2.329610
     16          1           0       -2.444695   -1.288788   -1.233299
     17          1           0        1.339828   -2.210538   -0.971836
     18          1           0        2.444801   -1.288625    1.233407
     19          1           0        2.834832    1.183204    0.081718
     20          1           0        1.711512    1.274197    1.440941
     21          1           0       -2.834820    1.183134   -0.081833
     22          1           0       -1.711495    1.274040   -1.441060
 ---------------------------------------------------------------------
                    Distance matrix (angstroms):
                    1          2          3          4          5
     1  C    0.000000
     2  C    1.419429   0.000000
     3  C    2.302144   1.418628   0.000000
     4  C    3.331942   2.713365   1.942587   0.000000
     5  C    3.091445   3.082022   2.713361   1.418628   0.000000
     6  C    1.367489   2.283745   2.339499   3.230114   2.839359
     7  C    3.027276   3.091473   3.331958   2.302145   1.419432
     8  C    3.315178   2.839417   3.230150   2.339503   2.283747
     9  C    3.798718   2.897698   2.685645   1.523787   2.354421
    10  C    2.335568   2.354418   1.523787   2.685633   2.897674
    11  H    1.082591   2.219504   3.336932   4.191123   3.753421
    12  H    2.227618   1.079334   2.231024   3.319055   3.818151
    13  H    3.299567   2.183284   1.084714   2.373170   3.499843
    14  H    4.161866   3.499839   2.373160   1.084713   2.183284
    15  H    3.537706   3.818155   3.319055   2.231024   1.079333
    16  H    2.188027   3.328573   3.384182   4.052300   3.379756
    17  H    3.323045   3.753450   4.191140   3.336933   2.219505
    18  H    3.849365   3.379828   4.052344   3.384187   3.328576
    19  H    4.846651   3.996566   3.660625   2.145945   2.869019
    20  H    4.003665   2.802970   2.662025   2.215272   3.280443
    21  H    2.877619   2.869002   2.145943   3.660620   3.996543
    22  H    3.246644   3.280447   2.215273   2.662020   2.802962
                    6          7          8          9         10
     6  C    0.000000
     7  C    3.315151   0.000000
     8  C    3.958818   1.367486   0.000000
     9  C    4.196453   2.335570   1.503512   0.000000
    10  C    1.503511   3.798720   4.196475   3.877422   0.000000
    11  H    2.180440   3.323040   3.620409   4.436233   3.382832
    12  H    3.317014   3.537725   2.886416   2.996797   3.390598
    13  H    3.358261   4.161887   3.819087   2.903836   2.267801
    14  H    3.819047   3.299567   3.358261   2.267799   2.903815
    15  H    2.886364   2.227620   3.317014   3.390598   2.996777
    16  H    1.081163   3.849321   4.727526   5.096969   2.293438
    17  H    3.620387   1.082590   2.180438   3.382833   4.436237
    18  H    4.727542   2.188025   1.081164   2.293438   5.097002
    19  H    5.144556   2.877634   2.137638   1.100615   4.762897
    20  H    4.562504   3.246638   2.201772   1.090890   4.097321
    21  H    2.137638   4.846651   5.144580   4.762904   1.100616
    22  H    2.201773   4.003678   4.562526   4.097322   1.090890
                   11         12         13         14         15
    11  H    0.000000
    12  H    2.662926   0.000000
    13  H    4.299491   2.632920   0.000000
    14  H    5.109345   4.125152   2.443393   0.000000
    15  H    4.182954   4.686370   4.125157   2.632917   0.000000
    16  H    2.633249   4.324516   4.378963   4.578281   3.109585
    17  H    3.310425   4.182974   5.109366   4.299491   2.662929
    18  H    3.903964   3.109658   4.578329   4.378964   4.324517
    19  H    5.453147   4.059274   3.744509   2.552752   3.792841
    20  H    4.655413   2.607849   2.558401   2.760995   4.301828
    21  H    3.855175   3.792833   2.552757   3.744500   4.059254
    22  H    4.254771   4.301831   2.760992   2.558381   2.607845
                   16         17         18         19         20
    16  H    0.000000
    17  H    3.903921   0.000000
    18  H    5.476478   2.633246   0.000000
    19  H    5.976071   3.855191   2.754714   0.000000
    20  H    5.567271   4.254764   2.673731   1.765676   0.000000
    21  H    2.754717   5.453145   5.976106   5.672010   4.795442
    22  H    2.673730   4.655430   5.567300   4.795434   4.474696
                   21         22
    21  H    0.000000
    22  H    1.765678   0.000000
 Stoichiometry    C10H12
 Framework group  C1[X(C10H12)]
 Deg. of freedom    60
 Full point group                 C1      NOp   1
 RotChk:  IX=2 Diff= 2.20D-15
 Largest Abelian subgroup         C1      NOp   1
 Largest concise Abelian subgroup C1      NOp   1
                         Standard orientation:                         
 ---------------------------------------------------------------------
 Center     Atomic      Atomic             Coordinates (Angstroms)
 Number     Number       Type             X           Y           Z
 ---------------------------------------------------------------------
      1          6           0       -1.358371    1.172801   -0.667792
      2          6           0       -0.717766    0.114417   -1.363658
      3          6           0       -0.790122   -1.055735   -0.564901
      4          6           0        0.790104   -1.055713    0.564935
      5          6           0        0.717745    0.114474    1.363642
      6          6           0       -1.918333    0.702712    0.487839
      7          6           0        1.358382    1.172821    0.667744
      8          6           0        1.918367    0.702678   -0.487851
      9          6           0        1.881558   -0.800242   -0.467241
     10          6           0       -1.881563   -0.800209    0.467276
     11          1           0       -1.336772    2.210330   -0.976128
     12          1           0       -0.244508    0.194375   -2.330403
     13          1           0       -0.687803   -2.039769   -1.009662
     14          1           0        0.687770   -2.039727    1.009736
     15          1           0        0.244492    0.194472    2.330385
     16          1           0       -2.448515    1.288591    1.225786
     17          1           0        1.336795    2.210361    0.976039
     18          1           0        2.448576    1.288519   -1.225809
     19          1           0        2.835056   -1.183343   -0.072997
     20          1           0        1.715939   -1.274299   -1.435684
     21          1           0       -2.835073   -1.183297    0.073047
     22          1           0       -1.715951   -1.274241    1.435732
 ---------------------------------------------------------------------
 Rotational constants (GHZ):           2.3964809           1.3303867           1.2664704
 Leave Link  202 at Wed Jul 23 23:16:39 2025, MaxMem= 87241523200 cpu:               0.9 elap:               0.0
 (Enter /home/hongchang/data/software/Gaussian/g16/l301.exe)
 Standard basis: 6-31G(d) (6D, 7F)
 Ernie: Thresh=  0.10000D-02 Tol=  0.10000D-05 Strict=F.
 There are   174 symmetry adapted cartesian basis functions of A   symmetry.
 There are   174 symmetry adapted basis functions of A   symmetry.
   174 basis functions,   328 primitive gaussians,   174 cartesian basis functions
    36 alpha electrons       36 beta electrons
       nuclear repulsion energy       521.7702007128 Hartrees.
 IExCor= 3428 DFT=T Ex+Corr=M052X ExCW=0 ScaHFX=  0.560000
 ScaDFX=  0.440000  0.440000  1.000000  1.000000 ScalE2=  1.000000  1.000000
 IRadAn=      5 IRanWt=     -1 IRanGd=            0 ICorTp=0 IEmpDi=  4
 NAtoms=   22 NActive=   22 NUniq=   22 SFac= 1.00D+00 NAtFMM=   60 NAOKFM=F Big=F
 Integral buffers will be    131072 words long.
 Raffenetti 2 integral format.
 Two-electron integral symmetry is turned on.
 ------------------------------------------------------------------------------
 Polarizable Continuum Model (PCM)
 =================================
 Model                : PCM.
 Atomic radii         : SMD-Coulomb.
 Polarization charges : Total charges.
 Charge compensation  : None.
 Solution method      : On-the-fly selection.
 Cavity type          : VdW (van der Waals Surface) (Alpha=1.000).
 Cavity algorithm     : GePol (No added spheres)
                        Default sphere list used, NSphG=   22.
                        Lebedev-Laikov grids with approx.  5.0 points / Ang**2.
                        Smoothing algorithm: York/Karplus (Gamma=1.0000).
                        Polarization charges: spherical gaussians, with
                                              point-specific exponents (IZeta= 3).
                        Self-potential: point-specific (ISelfS= 7).
                        Self-field    : sphere-specific E.n sum rule (ISelfD= 2).
 Solvent              : Cis-Decalin, Eps=   2.213900 Eps(inf)=   2.193361
 ------------------------------------------------------------------------------
 GePol: Number of generator spheres                  =      22
 GePol: Total number of spheres                      =      22
 GePol: Number of exposed spheres                    =      22 (100.00%)
 GePol: Number of points                             =    1512
 GePol: Average weight of points                     =       0.11
 GePol: Minimum weight of points                     =   0.25D-07
 GePol: Maximum weight of points                     =    0.17992
 GePol: Number of points with low weight             =      96
 GePol: Fraction of low-weight points (<1% of avg)   =       6.35%
 GePol: Cavity surface area                          =    167.018 Ang**2
 GePol: Cavity volume                                =    153.345 Ang**3
 ------------------------------------------------------------------------------
 Atomic radii for non-electrostatic terms: SMD-CDS.
 ------------------------------------------------------------------------------
 PCM non-electrostatic energy =        -0.0066106642 Hartrees.
 Nuclear repulsion after PCM non-electrostatic terms =      521.7635900486 Hartrees.
 Leave Link  301 at Wed Jul 23 23:16:39 2025, MaxMem= 87241523200 cpu:              11.1 elap:               0.1
 (Enter /home/hongchang/data/software/Gaussian/g16/l302.exe)
 NPDir=0 NMtPBC=     1 NCelOv=     1 NCel=       1 NClECP=     1 NCelD=      1
         NCelK=      1 NCelE2=     1 NClLst=     1 CellRange=     0.0.
 One-electron integrals computed using PRISM.
 One-electron integral symmetry used in STVInt
 NBasis=   174 RedAO= T EigKep=  1.25D-03  NBF=   174
 NBsUse=   174 1.00D-06 EigRej= -1.00D+00 NBFU=   174
 Precomputing XC quadrature grid using
 IXCGrd= 4 IRadAn=           5 IRanWt=          -1 IRanGd=           0 AccXCQ= 0.00D+00.
 Generated NRdTot=       0 NPtTot=           0 NUsed=           0 NTot=          32
 NSgBfM=   174   174   174   174   174 MxSgAt=    22 MxSgA2=    22.
 Leave Link  302 at Wed Jul 23 23:16:40 2025, MaxMem= 87241523200 cpu:              19.7 elap:               0.2
 (Enter /home/hongchang/data/software/Gaussian/g16/l303.exe)
 DipDrv:  MaxL=1.
 Leave Link  303 at Wed Jul 23 23:16:40 2025, MaxMem= 87241523200 cpu:               8.7 elap:               0.1
 (Enter /home/hongchang/data/software/Gaussian/g16/l401.exe)
 ExpMin= 1.61D-01 ExpMax= 3.05D+03 ExpMxC= 4.57D+02 IAcc=3 IRadAn=         5 AccDes= 0.00D+00
 Harris functional with IExCor= 1009 and IRadAn=       5 diagonalized for initial guess.
 HarFok:  IExCor= 1009 AccDes= 0.00D+00 IRadAn=         5 IDoV= 1 UseB2=F ITyADJ=14
 ICtDFT=  3500011 ScaDFX=  1.000000  1.000000  1.000000  1.000000
 FoFCou: FMM=F IPFlag=           0 FMFlag=      100000 FMFlg1=           0
         NFxFlg=           0 DoJE=T BraDBF=F KetDBF=T FulRan=T
         wScrn=  0.000000 ICntrl=       500 IOpCl=  0 I1Cent=   200000004 NGrid=           0
         NMat0=    1 NMatS0=      1 NMatT0=    0 NMatD0=    1 NMtDS0=    0 NMtDT0=    0
 Petite list used in FoFCou.
 Harris En= -387.878216881560    
 JPrj=0 DoOrth=F DoCkMO=F.
 Leave Link  401 at Wed Jul 23 23:16:41 2025, MaxMem= 87241523200 cpu:              32.8 elap:               0.3
 (Enter /home/hongchang/data/software/Gaussian/g16/l502.exe)
 Integral symmetry usage will be decided dynamically.
 Closed shell SCF:
 Using DIIS extrapolation, IDIIS=  1040.
 NGot= 87241523200 LenX= 87241441024 LenY= 87241410307
 Requested convergence on RMS density matrix=1.00D-08 within 128 cycles.
 Requested convergence on MAX density matrix=1.00D-06.
 Requested convergence on             energy=1.00D-06.
 No special actions if energy rises.
 Fock matrices will be formed incrementally for  20 cycles.

 Cycle   1  Pass 1  IDiag  1:
 FoFJK:  IHMeth= 1 ICntrl=       0 DoSepK=F KAlg= 0 I1Cent=           0 FoldK=F
 IRaf= 980000000 NMat=       1 IRICut=       1 DoRegI=T DoRafI=F ISym2E= 0 IDoP0=0 IntGTp=1.
 FoFCou: FMM=F IPFlag=           0 FMFlag=      100000 FMFlg1=           0
         NFxFlg=           0 DoJE=F BraDBF=F KetDBF=F FulRan=T
         wScrn=  0.000000 ICntrl=         0 IOpCl=  0 I1Cent=           0 NGrid=           0
         NMat0=    1 NMatS0=      1 NMatT0=    0 NMatD0=    1 NMtDS0=    0 NMtDT0=    0
 Symmetry not used in FoFCou.
 Inv3:  Mode=1 IEnd=     6858432.
 Iteration    1 A*A^-1 deviation from unit magnitude is 4.88D-15 for    670.
 Iteration    1 A*A^-1 deviation from orthogonality  is 1.50D-15 for   1341    507.
 Iteration    1 A^-1*A deviation from unit magnitude is 4.44D-15 for    658.
 Iteration    1 A^-1*A deviation from orthogonality  is 1.43D-15 for   1510   1345.
 E= -387.863866449738    
 DIIS: error= 2.76D-02 at cycle   1 NSaved=   1.
 NSaved= 1 IEnMin= 1 EnMin= -387.863866449738     IErMin= 1 ErrMin= 2.76D-02
 ErrMax= 2.76D-02  0.00D+00 EMaxC= 1.00D-01 BMatC= 2.55D-01 BMatP= 2.55D-01
 IDIUse=3 WtCom= 7.24D-01 WtEn= 2.76D-01
 Coeff-Com:  0.100D+01
 Coeff-En:   0.100D+01
 Coeff:      0.100D+01
 Gap=     0.222 Goal=   None    Shift=    0.000
 GapD=    0.222 DampG=1.000 DampE=0.500 DampFc=0.5000 IDamp=-1.
 Damping current iteration by 5.00D-01
 RMSDP=5.79D-03 MaxDP=8.45D-02              OVMax= 1.32D-01

 Cycle   2  Pass 1  IDiag  1:
 RMSU=  2.84D-03    CP:  9.77D-01
 E= -388.003006299039     Delta-E=       -0.139139849301 Rises=F Damp=T
 DIIS: error= 9.23D-03 at cycle   2 NSaved=   2.
 NSaved= 2 IEnMin= 2 EnMin= -388.003006299039     IErMin= 2 ErrMin= 9.23D-03
 ErrMax= 9.23D-03  0.00D+00 EMaxC= 1.00D-01 BMatC= 1.67D-02 BMatP= 2.55D-01
 IDIUse=3 WtCom= 9.08D-01 WtEn= 9.23D-02
 Coeff-Com: -0.970D-01 0.110D+01
 Coeff-En:   0.000D+00 0.100D+01
 Coeff:     -0.881D-01 0.109D+01
 Gap=     0.224 Goal=   None    Shift=    0.000
 RMSDP=1.36D-03 MaxDP=1.96D-02 DE=-1.39D-01 OVMax= 6.48D-02

 Cycle   3  Pass 1  IDiag  1:
 RMSU=  1.35D-03    CP:  9.72D-01  9.59D-01
 E= -388.133061191666     Delta-E=       -0.130054892627 Rises=F Damp=F
 DIIS: error= 3.06D-03 at cycle   3 NSaved=   3.
 NSaved= 3 IEnMin= 3 EnMin= -388.133061191666     IErMin= 3 ErrMin= 3.06D-03
 ErrMax= 3.06D-03  0.00D+00 EMaxC= 1.00D-01 BMatC= 1.66D-03 BMatP= 1.67D-02
 IDIUse=3 WtCom= 9.69D-01 WtEn= 3.06D-02
 Coeff-Com: -0.520D-01 0.223D+00 0.829D+00
 Coeff-En:   0.000D+00 0.000D+00 0.100D+01
 Coeff:     -0.504D-01 0.216D+00 0.834D+00
 Gap=     0.222 Goal=   None    Shift=    0.000
 RMSDP=3.91D-04 MaxDP=6.79D-03 DE=-1.30D-01 OVMax= 1.42D-02

 Cycle   4  Pass 1  IDiag  1:
 RMSU=  2.66D-04    CP:  9.71D-01  1.03D+00  8.51D-01
 E= -388.134252236075     Delta-E=       -0.001191044409 Rises=F Damp=F
 DIIS: error= 1.20D-03 at cycle   4 NSaved=   4.
 NSaved= 4 IEnMin= 4 EnMin= -388.134252236075     IErMin= 4 ErrMin= 1.20D-03
 ErrMax= 1.20D-03  0.00D+00 EMaxC= 1.00D-01 BMatC= 3.07D-04 BMatP= 1.66D-03
 IDIUse=3 WtCom= 9.88D-01 WtEn= 1.20D-02
 Coeff-Com: -0.148D-01 0.425D-01 0.326D+00 0.646D+00
 Coeff-En:   0.000D+00 0.000D+00 0.247D-01 0.975D+00
 Coeff:     -0.146D-01 0.420D-01 0.322D+00 0.650D+00
 Gap=     0.222 Goal=   None    Shift=    0.000
 RMSDP=1.51D-04 MaxDP=2.45D-03 DE=-1.19D-03 OVMax= 7.47D-03

 Cycle   5  Pass 1  IDiag  1:
 RMSU=  9.12D-05    CP:  9.71D-01  1.02D+00  9.02D-01  6.53D-01
 E= -388.134524884986     Delta-E=       -0.000272648911 Rises=F Damp=F
 DIIS: error= 4.12D-04 at cycle   5 NSaved=   5.
 NSaved= 5 IEnMin= 5 EnMin= -388.134524884986     IErMin= 5 ErrMin= 4.12D-04
 ErrMax= 4.12D-04  0.00D+00 EMaxC= 1.00D-01 BMatC= 3.97D-05 BMatP= 3.07D-04
 IDIUse=3 WtCom= 9.96D-01 WtEn= 4.12D-03
 Coeff-Com: -0.183D-02-0.110D-03 0.664D-01 0.302D+00 0.633D+00
 Coeff-En:   0.000D+00 0.000D+00 0.000D+00 0.335D-01 0.966D+00
 Coeff:     -0.182D-02-0.109D-03 0.662D-01 0.301D+00 0.635D+00
 Gap=     0.222 Goal=   None    Shift=    0.000
 RMSDP=4.18D-05 MaxDP=8.90D-04 DE=-2.73D-04 OVMax= 2.99D-03

 Cycle   6  Pass 1  IDiag  1:
 RMSU=  1.97D-05    CP:  9.71D-01  1.02D+00  9.09D-01  7.44D-01  7.18D-01
 E= -388.134567010643     Delta-E=       -0.000042125657 Rises=F Damp=F
 DIIS: error= 5.38D-05 at cycle   6 NSaved=   6.
 NSaved= 6 IEnMin= 6 EnMin= -388.134567010643     IErMin= 6 ErrMin= 5.38D-05
 ErrMax= 5.38D-05  0.00D+00 EMaxC= 1.00D-01 BMatC= 7.56D-07 BMatP= 3.97D-05
 IDIUse=1 WtCom= 1.00D+00 WtEn= 0.00D+00
 Coeff-Com:  0.183D-03-0.181D-02 0.231D-02 0.463D-01 0.160D+00 0.793D+00
 Coeff:      0.183D-03-0.181D-02 0.231D-02 0.463D-01 0.160D+00 0.793D+00
 Gap=     0.222 Goal=   None    Shift=    0.000
 RMSDP=9.91D-06 MaxDP=1.65D-04 DE=-4.21D-05 OVMax= 5.54D-04

 Cycle   7  Pass 1  IDiag  1:
 RMSU=  8.15D-06    CP:  9.71D-01  1.02D+00  9.10D-01  7.50D-01  7.74D-01
                    CP:  9.60D-01
 E= -388.134568104757     Delta-E=       -0.000001094113 Rises=F Damp=F
 DIIS: error= 2.46D-05 at cycle   7 NSaved=   7.
 NSaved= 7 IEnMin= 7 EnMin= -388.134568104757     IErMin= 7 ErrMin= 2.46D-05
 ErrMax= 2.46D-05  0.00D+00 EMaxC= 1.00D-01 BMatC= 1.46D-07 BMatP= 7.56D-07
 IDIUse=1 WtCom= 1.00D+00 WtEn= 0.00D+00
 Coeff-Com:  0.312D-03-0.675D-03-0.847D-02-0.253D-01-0.286D-01 0.290D+00
 Coeff-Com:  0.772D+00
 Coeff:      0.312D-03-0.675D-03-0.847D-02-0.253D-01-0.286D-01 0.290D+00
 Coeff:      0.772D+00
 Gap=     0.222 Goal=   None    Shift=    0.000
 RMSDP=4.09D-06 MaxDP=5.86D-05 DE=-1.09D-06 OVMax= 2.86D-04

 Cycle   8  Pass 1  IDiag  1:
 RMSU=  2.60D-06    CP:  9.71D-01  1.02D+00  9.11D-01  7.53D-01  7.89D-01
                    CP:  1.08D+00  1.05D+00
 E= -388.134568366022     Delta-E=       -0.000000261265 Rises=F Damp=F
 DIIS: error= 7.39D-06 at cycle   8 NSaved=   8.
 NSaved= 8 IEnMin= 8 EnMin= -388.134568366022     IErMin= 8 ErrMin= 7.39D-06
 ErrMax= 7.39D-06  0.00D+00 EMaxC= 1.00D-01 BMatC= 1.50D-08 BMatP= 1.46D-07
 IDIUse=1 WtCom= 1.00D+00 WtEn= 0.00D+00
 Coeff-Com:  0.670D-04-0.352D-04-0.293D-02-0.128D-01-0.245D-01 0.241D-01
 Coeff-Com:  0.265D+00 0.751D+00
 Coeff:      0.670D-04-0.352D-04-0.293D-02-0.128D-01-0.245D-01 0.241D-01
 Coeff:      0.265D+00 0.751D+00
 Gap=     0.222 Goal=   None    Shift=    0.000
 RMSDP=1.45D-06 MaxDP=1.92D-05 DE=-2.61D-07 OVMax= 9.91D-05

 Cycle   9  Pass 1  IDiag  1:
 RMSU=  8.68D-07    CP:  9.71D-01  1.02D+00  9.12D-01  7.53D-01  7.94D-01
                    CP:  1.10D+00  1.16D+00  1.03D+00
 E= -388.134568400150     Delta-E=       -0.000000034128 Rises=F Damp=F
 DIIS: error= 3.78D-06 at cycle   9 NSaved=   9.
 NSaved= 9 IEnMin= 9 EnMin= -388.134568400150     IErMin= 9 ErrMin= 3.78D-06
 ErrMax= 3.78D-06  0.00D+00 EMaxC= 1.00D-01 BMatC= 1.74D-09 BMatP= 1.50D-08
 IDIUse=1 WtCom= 1.00D+00 WtEn= 0.00D+00
 Coeff-Com: -0.477D-04 0.131D-03 0.815D-03 0.125D-02-0.108D-02-0.442D-01
 Coeff-Com: -0.677D-01 0.141D+00 0.970D+00
 Coeff:     -0.477D-04 0.131D-03 0.815D-03 0.125D-02-0.108D-02-0.442D-01
 Coeff:     -0.677D-01 0.141D+00 0.970D+00
 Gap=     0.222 Goal=   None    Shift=    0.000
 RMSDP=8.54D-07 MaxDP=1.25D-05 DE=-3.41D-08 OVMax= 6.91D-05

 Cycle  10  Pass 1  IDiag  1:
 RMSU=  3.19D-07    CP:  9.71D-01  1.02D+00  9.12D-01  7.53D-01  7.96D-01
                    CP:  1.11D+00  1.21D+00  1.22D+00  1.28D+00
 E= -388.134568406571     Delta-E=       -0.000000006421 Rises=F Damp=F
 DIIS: error= 1.15D-06 at cycle  10 NSaved=  10.
 NSaved=10 IEnMin=10 EnMin= -388.134568406571     IErMin=10 ErrMin= 1.15D-06
 ErrMax= 1.15D-06  0.00D+00 EMaxC= 1.00D-01 BMatC= 4.37D-10 BMatP= 1.74D-09
 IDIUse=1 WtCom= 1.00D+00 WtEn= 0.00D+00
 Coeff-Com: -0.313D-04 0.637D-04 0.793D-03 0.246D-02 0.334D-02-0.205D-01
 Coeff-Com: -0.642D-01-0.535D-01 0.426D+00 0.706D+00
 Coeff:     -0.313D-04 0.637D-04 0.793D-03 0.246D-02 0.334D-02-0.205D-01
 Coeff:     -0.642D-01-0.535D-01 0.426D+00 0.706D+00
 Gap=     0.222 Goal=   None    Shift=    0.000
 RMSDP=2.54D-07 MaxDP=3.51D-06 DE=-6.42D-09 OVMax= 1.70D-05

 Cycle  11  Pass 1  IDiag  1:
 RMSU=  1.00D-07    CP:  9.71D-01  1.02D+00  9.11D-01  7.53D-01  7.97D-01
                    CP:  1.11D+00  1.23D+00  1.26D+00  1.42D+00  9.48D-01
 E= -388.134568407347     Delta-E=       -0.000000000776 Rises=F Damp=F
 DIIS: error= 2.71D-07 at cycle  11 NSaved=  11.
 NSaved=11 IEnMin=11 EnMin= -388.134568407347     IErMin=11 ErrMin= 2.71D-07
 ErrMax= 2.71D-07  0.00D+00 EMaxC= 1.00D-01 BMatC= 1.10D-11 BMatP= 4.37D-10
 IDIUse=1 WtCom= 1.00D+00 WtEn= 0.00D+00
 Coeff-Com:  0.264D-05-0.741D-05-0.173D-04 0.855D-04 0.322D-03 0.223D-02
 Coeff-Com:  0.195D-03-0.224D-01-0.429D-01 0.587D-01 0.100D+01
 Coeff:      0.264D-05-0.741D-05-0.173D-04 0.855D-04 0.322D-03 0.223D-02
 Coeff:      0.195D-03-0.224D-01-0.429D-01 0.587D-01 0.100D+01
 Gap=     0.222 Goal=   None    Shift=    0.000
 RMSDP=7.25D-08 MaxDP=9.26D-07 DE=-7.76D-10 OVMax= 5.55D-06

 Cycle  12  Pass 1  IDiag  1:
 RMSU=  2.17D-08    CP:  9.71D-01  1.02D+00  9.11D-01  7.53D-01  7.97D-01
                    CP:  1.11D+00  1.23D+00  1.27D+00  1.46D+00  1.05D+00
                    CP:  1.13D+00
 E= -388.134568407380     Delta-E=       -0.000000000033 Rises=F Damp=F
 DIIS: error= 7.63D-08 at cycle  12 NSaved=  12.
 NSaved=12 IEnMin=12 EnMin= -388.134568407380     IErMin=12 ErrMin= 7.63D-08
 ErrMax= 7.63D-08  0.00D+00 EMaxC= 1.00D-01 BMatC= 2.02D-12 BMatP= 1.10D-11
 IDIUse=1 WtCom= 1.00D+00 WtEn= 0.00D+00
 Coeff-Com:  0.242D-05-0.576D-05-0.469D-04-0.831D-04-0.375D-04 0.192D-02
 Coeff-Com:  0.324D-02-0.678D-02-0.354D-01-0.156D-01 0.391D+00 0.662D+00
 Coeff:      0.242D-05-0.576D-05-0.469D-04-0.831D-04-0.375D-04 0.192D-02
 Coeff:      0.324D-02-0.678D-02-0.354D-01-0.156D-01 0.391D+00 0.662D+00
 Gap=     0.222 Goal=   None    Shift=    0.000
 RMSDP=1.18D-08 MaxDP=1.75D-07 DE=-3.26D-11 OVMax= 5.84D-07

 Cycle  13  Pass 1  IDiag  1:
 RMSU=  7.37D-09    CP:  9.71D-01  1.02D+00  9.11D-01  7.53D-01  7.97D-01
                    CP:  1.11D+00  1.23D+00  1.27D+00  1.47D+00  1.05D+00
                    CP:  1.18D+00  9.08D-01
 E= -388.134568407388     Delta-E=       -0.000000000008 Rises=F Damp=F
 DIIS: error= 1.73D-08 at cycle  13 NSaved=  13.
 NSaved=13 IEnMin=13 EnMin= -388.134568407388     IErMin=13 ErrMin= 1.73D-08
 ErrMax= 1.73D-08  0.00D+00 EMaxC= 1.00D-01 BMatC= 1.15D-13 BMatP= 2.02D-12
 IDIUse=1 WtCom= 1.00D+00 WtEn= 0.00D+00
 Coeff-Com: -0.105D-06 0.275D-06-0.587D-05-0.188D-04-0.397D-04 0.101D-03
 Coeff-Com:  0.539D-03 0.101D-02 0.106D-04-0.123D-01-0.480D-01 0.113D+00
 Coeff-Com:  0.946D+00
 Coeff:     -0.105D-06 0.275D-06-0.587D-05-0.188D-04-0.397D-04 0.101D-03
 Coeff:      0.539D-03 0.101D-02 0.106D-04-0.123D-01-0.480D-01 0.113D+00
 Coeff:      0.946D+00
 Gap=     0.222 Goal=   None    Shift=    0.000
 RMSDP=4.43D-09 MaxDP=5.25D-08 DE=-8.19D-12 OVMax= 2.45D-07

 Error on total polarization charges =  0.02201
 SCF Done:  E(RM052X) =  -388.134568407     A.U. after   13 cycles
            NFock= 13  Conv=0.44D-08     -V/T= 2.0097
 KE= 3.844048335215D+02 PE=-1.941854111375D+03 EE= 6.475511193978D+02
 SMD-CDS (non-electrostatic) energy       (kcal/mol) =      -4.15
 (included in total energy above)
 Leave Link  502 at Wed Jul 23 23:16:48 2025, MaxMem= 87241523200 cpu:             629.6 elap:               6.0
 (Enter /home/hongchang/data/software/Gaussian/g16/l601.exe)
 Copying SCF densities to generalized density rwf, IOpCl= 0 IROHF=0.

 **********************************************************************

            Population analysis using the SCF density.

 **********************************************************************

 Orbital symmetries:
       Occupied  (A) (A) (A) (A) (A) (A) (A) (A) (A) (A) (A) (A)
                 (A) (A) (A) (A) (A) (A) (A) (A) (A) (A) (A) (A)
                 (A) (A) (A) (A) (A) (A) (A) (A) (A) (A) (A) (A)
       Virtual   (A) (A) (A) (A) (A) (A) (A) (A) (A) (A) (A) (A)
                 (A) (A) (A) (A) (A) (A) (A) (A) (A) (A) (A) (A)
                 (A) (A) (A) (A) (A) (A) (A) (A) (A) (A) (A) (A)
                 (A) (A) (A) (A) (A) (A) (A) (A) (A) (A) (A) (A)
                 (A) (A) (A) (A) (A) (A) (A) (A) (A) (A) (A) (A)
                 (A) (A) (A) (A) (A) (A) (A) (A) (A) (A) (A) (A)
                 (A) (A) (A) (A) (A) (A) (A) (A) (A) (A) (A) (A)
                 (A) (A) (A) (A) (A) (A) (A) (A) (A) (A) (A) (A)
                 (A) (A) (A) (A) (A) (A) (A) (A) (A) (A) (A) (A)
                 (A) (A) (A) (A) (A) (A) (A) (A) (A) (A) (A) (A)
                 (A) (A) (A) (A) (A) (A) (A) (A) (A) (A) (A) (A)
                 (A) (A) (A) (A) (A) (A)
 The electronic state is 1-A.
 Alpha  occ. eigenvalues --  -10.57784 -10.57778 -10.56528 -10.56528 -10.56468
 Alpha  occ. eigenvalues --  -10.56468 -10.56013 -10.56011 -10.55942 -10.55941
 Alpha  occ. eigenvalues --   -0.97357  -0.94117  -0.81321  -0.79955  -0.78205
 Alpha  occ. eigenvalues --   -0.77368  -0.63858  -0.62825  -0.60790  -0.58949
 Alpha  occ. eigenvalues --   -0.58901  -0.57132  -0.52211  -0.48649  -0.45192
 Alpha  occ. eigenvalues --   -0.43795  -0.43080  -0.42632  -0.42005  -0.41601
 Alpha  occ. eigenvalues --   -0.41177  -0.39522  -0.37235  -0.30860  -0.30513
 Alpha  occ. eigenvalues --   -0.21359
 Alpha virt. eigenvalues --    0.00872   0.09115   0.09384   0.15624   0.18525
 Alpha virt. eigenvalues --    0.19696   0.20554   0.21074   0.21846   0.22516
 Alpha virt. eigenvalues --    0.23387   0.23904   0.24626   0.24956   0.26444
 Alpha virt. eigenvalues --    0.27151   0.28919   0.29268   0.29815   0.30177
 Alpha virt. eigenvalues --    0.35660   0.38575   0.42331   0.42838   0.47594
 Alpha virt. eigenvalues --    0.49261   0.55137   0.57094   0.59530   0.61845
 Alpha virt. eigenvalues --    0.62364   0.63826   0.64471   0.65384   0.65887
 Alpha virt. eigenvalues --    0.66644   0.69207   0.69331   0.70924   0.72752
 Alpha virt. eigenvalues --    0.74985   0.77023   0.78842   0.79184   0.80477
 Alpha virt. eigenvalues --    0.85556   0.86865   0.87340   0.91987   0.92504
 Alpha virt. eigenvalues --    0.93633   0.93772   0.94847   0.95010   0.95805
 Alpha virt. eigenvalues --    0.96694   0.96999   0.99518   1.01227   1.02120
 Alpha virt. eigenvalues --    1.02218   1.04265   1.04975   1.07681   1.07895
 Alpha virt. eigenvalues --    1.14678   1.20398   1.22994   1.24574   1.28016
 Alpha virt. eigenvalues --    1.33281   1.36046   1.40021   1.43670   1.45902
 Alpha virt. eigenvalues --    1.49879   1.50373   1.54189   1.54989   1.60184
 Alpha virt. eigenvalues --    1.60755   1.62925   1.67074   1.71428   1.74031
 Alpha virt. eigenvalues --    1.78738   1.79768   1.90982   1.93351   1.96612
 Alpha virt. eigenvalues --    1.97368   2.03946   2.04149   2.07378   2.11135
 Alpha virt. eigenvalues --    2.12232   2.14698   2.17179   2.19270   2.19427
 Alpha virt. eigenvalues --    2.20696   2.23725   2.24873   2.29183   2.33644
 Alpha virt. eigenvalues --    2.35194   2.37147   2.39551   2.45233   2.47041
 Alpha virt. eigenvalues --    2.50375   2.51767   2.52703   2.55907   2.56984
 Alpha virt. eigenvalues --    2.61252   2.69362   2.71234   2.72886   2.73510
 Alpha virt. eigenvalues --    2.74466   2.76319   2.79673   2.79977   3.00316
 Alpha virt. eigenvalues --    3.01503   3.04852   3.06273   4.14477   4.23991
 Alpha virt. eigenvalues --    4.25902   4.41486   4.43861   4.48251   4.55257
 Alpha virt. eigenvalues --    4.68364   4.69590   4.72485
          Condensed to atoms (all electrons):
               1          2          3          4          5          6
     1  C    4.840039   0.503128  -0.049037  -0.010087   0.009903   0.605004
     2  C    0.503128   5.034956   0.524622  -0.040083  -0.051290  -0.062725
     3  C   -0.049037   0.524622   5.150719   0.122539  -0.040084  -0.082838
     4  C   -0.010087  -0.040083   0.122539   5.150718   0.524623  -0.012036
     5  C    0.009903  -0.051290  -0.040084   0.524623   5.034959   0.044625
     6  C    0.605004  -0.062725  -0.082838  -0.012036   0.044625   5.081578
     7  C   -0.009918   0.009903  -0.010086  -0.049036   0.503122  -0.007061
     8  C   -0.007060   0.044620  -0.012035  -0.082838  -0.062724  -0.002321
     9  C    0.000005  -0.011541  -0.026744   0.377542  -0.079213   0.000300
    10  C   -0.065648  -0.079213   0.377541  -0.026745  -0.011542   0.373823
    11  H    0.376736  -0.046712   0.005849  -0.000046   0.000221  -0.048780
    12  H   -0.038789   0.375674  -0.045078  -0.000678  -0.000025   0.005459
    13  H    0.005653  -0.038862   0.377163  -0.020366   0.002515   0.004846
    14  H    0.000028   0.002515  -0.020367   0.377163  -0.038862   0.000096
    15  H   -0.000181  -0.000025  -0.000678  -0.045078   0.375674   0.001154
    16  H   -0.037163   0.005816   0.004454   0.000172  -0.002048   0.376429
    17  H    0.000422   0.000221  -0.000046   0.005849  -0.046712  -0.000097
    18  H    0.000078  -0.002048   0.000172   0.004454   0.005816   0.000015
    19  H   -0.000061   0.001699   0.003670  -0.028240  -0.000604  -0.000051
    20  H    0.000445  -0.002056  -0.002796  -0.038625   0.005709   0.000020
    21  H   -0.003213  -0.000604  -0.028240   0.003670   0.001699  -0.033845
    22  H    0.004068   0.005709  -0.038625  -0.002796  -0.002056  -0.032113
               7          8          9         10         11         12
     1  C   -0.009918  -0.007060   0.000005  -0.065648   0.376736  -0.038789
     2  C    0.009903   0.044620  -0.011541  -0.079213  -0.046712   0.375674
     3  C   -0.010086  -0.012035  -0.026744   0.377541   0.005849  -0.045078
     4  C   -0.049036  -0.082838   0.377542  -0.026745  -0.000046  -0.000678
     5  C    0.503122  -0.062724  -0.079213  -0.011542   0.000221  -0.000025
     6  C   -0.007061  -0.002321   0.000300   0.373823  -0.048780   0.005459
     7  C    4.840037   0.605011  -0.065648   0.000005   0.000422  -0.000181
     8  C    0.605011   5.081572   0.373823   0.000300  -0.000097   0.001154
     9  C   -0.065648   0.373823   5.109619   0.002993  -0.000010   0.000208
    10  C    0.000005   0.000300   0.002993   5.109621   0.006627   0.005512
    11  H    0.000422  -0.000097  -0.000010   0.006627   0.539821  -0.002502
    12  H   -0.000181   0.001154   0.000208   0.005512  -0.002502   0.527942
    13  H    0.000028   0.000096  -0.003120  -0.037750  -0.000103  -0.002545
    14  H    0.005653   0.004846  -0.037750  -0.003121   0.000003  -0.000045
    15  H   -0.038789   0.005459   0.005512   0.000208  -0.000015  -0.000003
    16  H    0.000078   0.000015  -0.000002  -0.042406  -0.003130  -0.000118
    17  H    0.376736  -0.048780   0.006627  -0.000010   0.000102  -0.000015
    18  H   -0.037163   0.376428  -0.042406  -0.000002   0.000020   0.000039
    19  H   -0.003213  -0.033845   0.360890  -0.000073  -0.000001   0.000027
    20  H    0.004067  -0.032113   0.376264   0.000307   0.000003   0.000886
    21  H   -0.000061  -0.000051  -0.000073   0.360889  -0.000163  -0.000157
    22  H    0.000445   0.000020   0.000307   0.376264  -0.000101  -0.000109
              13         14         15         16         17         18
     1  C    0.005653   0.000028  -0.000181  -0.037163   0.000422   0.000078
     2  C   -0.038862   0.002515  -0.000025   0.005816   0.000221  -0.002048
     3  C    0.377163  -0.020367  -0.000678   0.004454  -0.000046   0.000172
     4  C   -0.020366   0.377163  -0.045078   0.000172   0.005849   0.004454
     5  C    0.002515  -0.038862   0.375674  -0.002048  -0.046712   0.005816
     6  C    0.004846   0.000096   0.001154   0.376429  -0.000097   0.000015
     7  C    0.000028   0.005653  -0.038789   0.000078   0.376736  -0.037163
     8  C    0.000096   0.004846   0.005459   0.000015  -0.048780   0.376428
     9  C   -0.003120  -0.037750   0.005512  -0.000002   0.006627  -0.042406
    10  C   -0.037750  -0.003121   0.000208  -0.042406  -0.000010  -0.000002
    11  H   -0.000103   0.000003  -0.000015  -0.003130   0.000102   0.000020
    12  H   -0.002545  -0.000045  -0.000003  -0.000118  -0.000015   0.000039
    13  H    0.532139  -0.002619  -0.000045  -0.000099   0.000003   0.000002
    14  H   -0.002619   0.532138  -0.002545   0.000002  -0.000103  -0.000099
    15  H   -0.000045  -0.002545   0.527941   0.000039  -0.002502  -0.000118
    16  H   -0.000099   0.000002   0.000039   0.525477   0.000020  -0.000000
    17  H    0.000003  -0.000103  -0.002502   0.000020   0.539821  -0.003130
    18  H    0.000002  -0.000099  -0.000118  -0.000000  -0.003130   0.525476
    19  H   -0.000066  -0.000777  -0.000157   0.000000  -0.000163   0.000514
    20  H    0.002083  -0.000292  -0.000109  -0.000000  -0.000101  -0.001053
    21  H   -0.000776  -0.000066   0.000027   0.000514  -0.000001   0.000000
    22  H   -0.000292   0.002083   0.000886  -0.001053   0.000003  -0.000000
              19         20         21         22
     1  C   -0.000061   0.000445  -0.003213   0.004068
     2  C    0.001699  -0.002056  -0.000604   0.005709
     3  C    0.003670  -0.002796  -0.028240  -0.038625
     4  C   -0.028240  -0.038625   0.003670  -0.002796
     5  C   -0.000604   0.005709   0.001699  -0.002056
     6  C   -0.000051   0.000020  -0.033845  -0.032113
     7  C   -0.003213   0.004067  -0.000061   0.000445
     8  C   -0.033845  -0.032113  -0.000051   0.000020
     9  C    0.360890   0.376264  -0.000073   0.000307
    10  C   -0.000073   0.000307   0.360889   0.376264
    11  H   -0.000001   0.000003  -0.000163  -0.000101
    12  H    0.000027   0.000886  -0.000157  -0.000109
    13  H   -0.000066   0.002083  -0.000776  -0.000292
    14  H   -0.000777  -0.000292  -0.000066   0.002083
    15  H   -0.000157  -0.000109   0.000027   0.000886
    16  H    0.000000  -0.000000   0.000514  -0.001053
    17  H   -0.000163  -0.000101  -0.000001   0.000003
    18  H    0.000514  -0.001053   0.000000  -0.000000
    19  H    0.538898  -0.030460   0.000000  -0.000008
    20  H   -0.030460   0.542979  -0.000008  -0.000005
    21  H    0.000000  -0.000008   0.538897  -0.030460
    22  H   -0.000008  -0.000005  -0.030460   0.542979
 Mulliken charges:
               1
     1  C   -0.124351
     2  C   -0.173706
     3  C   -0.210075
     4  C   -0.210074
     5  C   -0.173707
     6  C   -0.211482
     7  C   -0.124351
     8  C   -0.211481
     9  C   -0.347581
    10  C   -0.347580
    11  H    0.171856
    12  H    0.173344
    13  H    0.182116
    14  H    0.182116
    15  H    0.173345
    16  H    0.173002
    17  H    0.171856
    18  H    0.173003
    19  H    0.192021
    20  H    0.174855
    21  H    0.192021
    22  H    0.174854
 Sum of Mulliken charges =  -0.00000
 Mulliken charges with hydrogens summed into heavy atoms:
               1
     1  C    0.047505
     2  C   -0.000362
     3  C   -0.027959
     4  C   -0.027958
     5  C   -0.000362
     6  C   -0.038480
     7  C    0.047505
     8  C   -0.038478
     9  C    0.019294
    10  C    0.019295
 Electronic spatial extent (au):  <R**2>=           1169.6357
 Charge=             -0.0000 electrons
 Dipole moment (field-independent basis, Debye):
    X=              0.0000    Y=             -0.6274    Z=              0.0000  Tot=              0.6274
 Quadrupole moment (field-independent basis, Debye-Ang):
   XX=            -61.0996   YY=            -55.3432   ZZ=            -58.2875
   XY=             -0.0000   XZ=             -4.0183   YZ=             -0.0000
 Traceless Quadrupole moment (field-independent basis, Debye-Ang):
   XX=             -2.8562   YY=              2.9002   ZZ=             -0.0441
   XY=             -0.0000   XZ=             -4.0183   YZ=             -0.0000
 Octapole moment (field-independent basis, Debye-Ang**2):
  XXX=              0.0002  YYY=              2.4282  ZZZ=              0.0000  XYY=              0.0000
  XXY=             -2.3551  XXZ=             -0.0000  XZZ=              0.0000  YZZ=              1.2365
  YYZ=              0.0001  XYZ=             -1.0553
 Hexadecapole moment (field-independent basis, Debye-Ang**3):
 XXXX=           -869.6140 YYYY=           -374.2912 ZZZZ=           -332.6704 XXXY=              0.0000
 XXXZ=            -27.2240 YYYX=              0.0000 YYYZ=             -0.0001 ZZZX=            -17.1327
 ZZZY=             -0.0000 XXYY=           -201.1360 XXZZ=           -205.9911 YYZZ=           -117.6002
 XXYZ=             -0.0004 YYXZ=             -0.8784 ZZXY=             -0.0004
 N-N= 5.217635900486D+02 E-N=-1.941854110074D+03  KE= 3.844048335215D+02
 No NMR shielding tensors so no spin-rotation constants.
 Leave Link  601 at Wed Jul 23 23:16:50 2025, MaxMem= 87241523200 cpu:              36.9 elap:               0.4
 (Enter /home/hongchang/data/software/Gaussian/g16/l9999.exe)
 1\1\GINC-NODE02\SP\RM052X\6-31G(d)\C10H12\HONGCHANG\23-Jul-2025\0\\#p 
 m052x/6-31g* scrf(SMD,solvent=Cis-Decalin) geom=check\\01_02\\0,1\C,0,
 -1.3604040456,-1.172936516,0.6636339645\C,0,-0.7219551707,-0.114529185
 4,1.3614424359\C,0,-0.7918482477,1.0555985857,0.5624295946\C,0,0.79185
 91201,1.0555474269,-0.5625217596\C,0,0.7219704233,-0.114664125,-1.3614
 119354\C,0,-1.9167971123,-0.7028846186,-0.4937349854\C,0,1.3604591515,
 -1.1729878408,-0.6635076408\C,0,1.9168719074,-0.7028073001,0.493796763
 7\C,0,1.8801216942,0.8001118423,0.4730280694\C,0,-1.8800957378,0.80003
 70986,-0.4731049985\H,0,-1.3397548249,-2.2104554383,0.9720660548\H,0,-
 0.2516837308,-0.194456067,2.3296460166\H,0,-0.6909063864,2.0396464013,
 1.0074748418\H,0,0.6908958861,2.0395474775,-1.0076661983\H,0,0.2517052
 22,-0.1946931246,-2.3296095226\H,0,-2.4446953833,-1.2887877064,-1.2332
 986739\H,0,1.3398277808,-2.2105376871,-0.9718355896\H,0,2.4448012153,-
 1.2886247686,1.2334071793\H,0,2.8348315703,1.183204224,0.0817183255\H,
 0,1.7115116345,1.274197032,1.4409408938\H,0,-2.8348198881,1.1831339786
 ,-0.0818332279\H,0,-1.711495078,1.2740403108,-1.4410596077\\Version=ES
 64L-G16RevA.03\State=1-A\HF=-388.1345684\RMSD=4.433e-09\Dipole=0.00000
 06,0.2468382,-0.0000211\Quadrupole=-2.1419197,2.1562417,-0.0143219,0.0
 001137,2.9809699,-0.0000713\PG=C01 [X(C10H12)]\\@


 THE WISE MAN HAS THE POWER TO REASON AWAY
 WHAT A FOOL BELIEVES.
                     - DOOBIE BROTHERS
 Job cpu time:       0 days  0 hours 13 minutes  7.8 seconds.
 Elapsed time:       0 days  0 hours  0 minutes  7.7 seconds.
 File lengths (MBytes):  RWF=     71 Int=      0 D2E=      0 Chk=     67 Scr=      2
 Normal termination of Gaussian 16 at Wed Jul 23 23:16:51 2025.
