 Entering Gaussian System, Link 0=g16
 Initial command:
 /home/hongchang/data/software/Gaussian/g16/l1.exe "/home/hongchang/data/software/Gaussian/g16/scratch/Gau-2638901.inp" -scrdir="/home/hongchang/data/software/Gaussian/g16/scratch/"
 Entering Link 1 = /home/hongchang/data/software/Gaussian/g16/l1.exe PID=   2638926.
  
 Copyright (c) 1988,1990,1992,1993,1995,1998,2003,2009,2016,
            Gaussian, Inc.  All Rights Reserved.
  
 This is part of the Gaussian(R) 16 program.  It is based on
 the Gaussian(R) 09 system (copyright 2009, Gaussian, Inc.),
 the Gaussian(R) 03 system (copyright 2003, Gaussian, Inc.),
 the Gaussian(R) 98 system (copyright 1998, Gaussian, Inc.),
 the Gaussian(R) 94 system (copyright 1995, Gaussian, Inc.),
 the Gaussian 92(TM) system (copyright 1992, Gaussian, Inc.),
 the Gaussian 90(TM) system (copyright 1990, Gaussian, Inc.),
 the Gaussian 88(TM) system (copyright 1988, Gaussian, Inc.),
 the Gaussian 86(TM) system (copyright 1986, Carnegie Mellon
 University), and the Gaussian 82(TM) system (copyright 1983,
 Carnegie Mellon University). Gaussian is a federally registered
 trademark of Gaussian, Inc.
  
 This software contains proprietary and confidential information,
 including trade secrets, belonging to Gaussian, Inc.
  
 This software is provided under written license and may be
 used, copied, transmitted, or stored only in accord with that
 written license.
  
 The following legend is applicable only to US Government
 contracts under FAR:
  
                    RESTRICTED RIGHTS LEGEND
  
 Use, reproduction and disclosure by the US Government is
 subject to restrictions as set forth in subparagraphs (a)
 and (c) of the Commercial Computer Software - Restricted
 Rights clause in FAR 52.227-19.
  
 Gaussian, Inc.
 340 Quinnipiac St., Bldg. 40, Wallingford CT 06492
  
  
 ---------------------------------------------------------------
 Warning -- This program may not be used in any manner that
 competes with the business of Gaussian, Inc. or will provide
 assistance to any competitor of Gaussian, Inc.  The licensee
 of this program is prohibited from giving any competitor of
 Gaussian, Inc. access to this program.  By using this program,
 the user acknowledges that Gaussian, Inc. is engaged in the
 business of creating and licensing software in the field of
 computational chemistry and represents and warrants to the
 licensee that it is not a competitor of Gaussian, Inc. and that
 it will not use this program in any manner prohibited above.
 ---------------------------------------------------------------
  

 Cite this work as:
 Gaussian 16, Revision A.03,
 M. J. Frisch, G. W. Trucks, H. B. Schlegel, G. E. Scuseria, 
 M. A. Robb, J. R. Cheeseman, G. Scalmani, V. Barone, 
 G. A. Petersson, H. Nakatsuji, X. Li, M. Caricato, A. V. Marenich, 
 J. Bloino, B. G. Janesko, R. Gomperts, B. Mennucci, H. P. Hratchian, 
 J. V. Ortiz, A. F. Izmaylov, J. L. Sonnenberg, D. Williams-Young, 
 F. Ding, F. Lipparini, F. Egidi, J. Goings, B. Peng, A. Petrone, 
 T. Henderson, D. Ranasinghe, V. G. Zakrzewski, J. Gao, N. Rega, 
 G. Zheng, W. Liang, M. Hada, M. Ehara, K. Toyota, R. Fukuda, 
 J. Hasegawa, M. Ishida, T. Nakajima, Y. Honda, O. Kitao, H. Nakai, 
 T. Vreven, K. Throssell, J. A. Montgomery, Jr., J. E. Peralta, 
 F. Ogliaro, M. J. Bearpark, J. J. Heyd, E. N. Brothers, K. N. Kudin, 
 V. N. Staroverov, T. A. Keith, R. Kobayashi, J. Normand, 
 K. Raghavachari, A. P. Rendell, J. C. Burant, S. S. Iyengar, 
 J. Tomasi, M. Cossi, J. M. Millam, M. Klene, C. Adamo, R. Cammi, 
 J. W. Ochterski, R. L. Martin, K. Morokuma, O. Farkas, 
 J. B. Foresman, and D. J. Fox, Gaussian, Inc., Wallingford CT, 2016.
 
 ******************************************
 Gaussian 16:  ES64L-G16RevA.03 25-Dec-2016
                23-Jul-2025 
 ******************************************
 %nproc=112
 Will use up to  112 processors via shared memory.
 %mem=650GB
 %chk=01_02.chk
 ----------------------------------------------------------------------
 # opt(TS,noeigen,calcall,maxstep=15) freq b3lyp/6-311g(d,p) em=gd3bj s
 crf(solvent=Cis-Decalin)
 ----------------------------------------------------------------------
 1/5=1,8=15,10=4,11=1,18=20,26=3,38=1/1,3;
 2/9=110,12=2,17=6,18=5,40=1/2;
 3/5=4,6=6,7=101,11=2,25=1,30=1,70=2201,71=2,72=99,74=-5,124=41,140=1/1,2,3;
 4//1;
 5/5=2,38=5,53=99/2;
 8/6=4,10=90,11=11/1;
 11/6=1,8=1,9=11,15=111,16=1/1,2,10;
 10/6=1/2;
 6/7=2,8=2,9=2,10=2,18=1,28=1/1;
 7/10=1,25=1/1,2,3,16;
 1/5=1,8=15,10=4,11=1,18=20,26=3/3(3);
 2/9=110/2;
 7/8=1,9=1,25=1,44=-1/16;
 99//99;
 2/9=110/2;
 3/5=4,6=6,7=101,11=2,25=1,30=1,70=2205,71=2,72=99,74=-5,124=41,140=1/1,2,3;
 4/5=5,16=3,69=1/1;
 5/5=2,38=5,53=99/2;
 8/6=4,10=90,11=11/1;
 11/6=1,8=1,9=11,15=111,16=1/1,2,10;
 10/6=1/2;
 7/10=1,25=1/1,2,3,16;
 1/5=1,8=15,10=4,11=1,18=20,26=3/3(-8);
 2/9=110/2;
 6/7=2,8=2,9=2,10=2,18=1,19=2,28=1/1;
 7/8=1,9=1,25=1,44=-1/16;
 99//99;
 -----
 01_02
 -----
 Symbolic Z-matrix:
 Charge =  0 Multiplicity = 1
 C                    -1.3544   -1.1747    0.6651 
 C                    -0.7233   -0.1115    1.3675 
 C                    -0.8014    1.0589    0.5728 
 C                     0.8013    1.0589   -0.5729 
 C                     0.7233   -0.1116   -1.3675 
 C                    -1.9069   -0.7052   -0.4962 
 C                     1.3544   -1.1748   -0.6649 
 C                     1.9071   -0.7052    0.4962 
 C                     1.8821    0.7989    0.4694 
 C                    -1.8821    0.7989   -0.4695 
 H                    -1.3289   -2.2141    0.9731 
 H                    -0.2527   -0.1908    2.3377 
 H                    -0.7001    2.046     1.0161 
 H                     0.7001    2.046    -1.0163 
 H                     0.2529   -0.1911   -2.3378 
 H                    -2.4344   -1.2923   -1.2377 
 H                     1.3288   -2.2143   -0.9727 
 H                     2.4347   -1.2921    1.2377 
 H                     2.8438    1.1745    0.0832 
 H                     1.7123    1.279     1.4365 
 H                    -2.8438    1.1743   -0.0832 
 H                    -1.7124    1.279    -1.4366 
 
 Add virtual bond connecting atoms C4         and C3         Dist= 3.72D+00.

 GradGradGradGradGradGradGradGradGradGradGradGradGradGradGradGradGradGrad
 Berny optimization.
 Initialization pass.
                           ----------------------------
                           !    Initial Parameters    !
                           ! (Angstroms and Degrees)  !
 --------------------------                            --------------------------
 ! Name  Definition              Value          Derivative Info.                !
 --------------------------------------------------------------------------------
 ! R1    R(1,2)                  1.422          calculate D2E/DX2 analytically  !
 ! R2    R(1,6)                  1.3691         calculate D2E/DX2 analytically  !
 ! R3    R(1,11)                 1.0844         calculate D2E/DX2 analytically  !
 ! R4    R(2,3)                  1.4169         calculate D2E/DX2 analytically  !
 ! R5    R(2,12)                 1.0812         calculate D2E/DX2 analytically  !
 ! R6    R(3,4)                  1.9701         calculate D2E/DX2 analytically  !
 ! R7    R(3,10)                 1.5238         calculate D2E/DX2 analytically  !
 ! R8    R(3,13)                 1.0868         calculate D2E/DX2 analytically  !
 ! R9    R(4,5)                  1.4169         calculate D2E/DX2 analytically  !
 ! R10   R(4,9)                  1.5238         calculate D2E/DX2 analytically  !
 ! R11   R(4,14)                 1.0868         calculate D2E/DX2 analytically  !
 ! R12   R(5,7)                  1.4221         calculate D2E/DX2 analytically  !
 ! R13   R(5,15)                 1.0812         calculate D2E/DX2 analytically  !
 ! R14   R(6,10)                 1.5045         calculate D2E/DX2 analytically  !
 ! R15   R(6,16)                 1.0829         calculate D2E/DX2 analytically  !
 ! R16   R(7,8)                  1.369          calculate D2E/DX2 analytically  !
 ! R17   R(7,17)                 1.0844         calculate D2E/DX2 analytically  !
 ! R18   R(8,9)                  1.5045         calculate D2E/DX2 analytically  !
 ! R19   R(8,18)                 1.0829         calculate D2E/DX2 analytically  !
 ! R20   R(9,19)                 1.1023         calculate D2E/DX2 analytically  !
 ! R21   R(9,20)                 1.093          calculate D2E/DX2 analytically  !
 ! R22   R(10,21)                1.1023         calculate D2E/DX2 analytically  !
 ! R23   R(10,22)                1.093          calculate D2E/DX2 analytically  !
 ! A1    A(2,1,6)              109.9803         calculate D2E/DX2 analytically  !
 ! A2    A(2,1,11)             124.4675         calculate D2E/DX2 analytically  !
 ! A3    A(6,1,11)             125.3899         calculate D2E/DX2 analytically  !
 ! A4    A(1,2,3)              108.4278         calculate D2E/DX2 analytically  !
 ! A5    A(1,2,12)             125.561          calculate D2E/DX2 analytically  !
 ! A6    A(3,2,12)             126.0062         calculate D2E/DX2 analytically  !
 ! A7    A(2,3,4)              106.3402         calculate D2E/DX2 analytically  !
 ! A8    A(2,3,10)             106.3681         calculate D2E/DX2 analytically  !
 ! A9    A(2,3,13)             121.0877         calculate D2E/DX2 analytically  !
 ! A10   A(4,3,10)             100.3216         calculate D2E/DX2 analytically  !
 ! A11   A(4,3,13)              99.2871         calculate D2E/DX2 analytically  !
 ! A12   A(10,3,13)            120.0059         calculate D2E/DX2 analytically  !
 ! A13   A(3,4,5)              106.3409         calculate D2E/DX2 analytically  !
 ! A14   A(3,4,9)              100.3242         calculate D2E/DX2 analytically  !
 ! A15   A(3,4,14)              99.2943         calculate D2E/DX2 analytically  !
 ! A16   A(5,4,9)              106.3607         calculate D2E/DX2 analytically  !
 ! A17   A(5,4,14)             121.0898         calculate D2E/DX2 analytically  !
 ! A18   A(9,4,14)             120.0037         calculate D2E/DX2 analytically  !
 ! A19   A(4,5,7)              108.4286         calculate D2E/DX2 analytically  !
 ! A20   A(4,5,15)             126.0124         calculate D2E/DX2 analytically  !
 ! A21   A(7,5,15)             125.554          calculate D2E/DX2 analytically  !
 ! A22   A(1,6,10)             108.7314         calculate D2E/DX2 analytically  !
 ! A23   A(1,6,16)             126.2608         calculate D2E/DX2 analytically  !
 ! A24   A(10,6,16)            124.205          calculate D2E/DX2 analytically  !
 ! A25   A(5,7,8)              109.9832         calculate D2E/DX2 analytically  !
 ! A26   A(5,7,17)             124.4688         calculate D2E/DX2 analytically  !
 ! A27   A(8,7,17)             125.3861         calculate D2E/DX2 analytically  !
 ! A28   A(7,8,9)              108.7299         calculate D2E/DX2 analytically  !
 ! A29   A(7,8,18)             126.2671         calculate D2E/DX2 analytically  !
 ! A30   A(9,8,18)             124.2019         calculate D2E/DX2 analytically  !
 ! A31   A(4,9,8)              101.2178         calculate D2E/DX2 analytically  !
 ! A32   A(4,9,19)             108.7238         calculate D2E/DX2 analytically  !
 ! A33   A(4,9,20)             114.8397         calculate D2E/DX2 analytically  !
 ! A34   A(8,9,19)             109.4134         calculate D2E/DX2 analytically  !
 ! A35   A(8,9,20)             115.2106         calculate D2E/DX2 analytically  !
 ! A36   A(19,9,20)            107.2096         calculate D2E/DX2 analytically  !
 ! A37   A(3,10,6)             101.2101         calculate D2E/DX2 analytically  !
 ! A38   A(3,10,21)            108.7199         calculate D2E/DX2 analytically  !
 ! A39   A(3,10,22)            114.8461         calculate D2E/DX2 analytically  !
 ! A40   A(6,10,21)            109.4088         calculate D2E/DX2 analytically  !
 ! A41   A(6,10,22)            115.2134         calculate D2E/DX2 analytically  !
 ! A42   A(21,10,22)           107.2152         calculate D2E/DX2 analytically  !
 ! D1    D(6,1,2,3)             -4.1161         calculate D2E/DX2 analytically  !
 ! D2    D(6,1,2,12)           176.6585         calculate D2E/DX2 analytically  !
 ! D3    D(11,1,2,3)           171.4618         calculate D2E/DX2 analytically  !
 ! D4    D(11,1,2,12)           -7.7636         calculate D2E/DX2 analytically  !
 ! D5    D(2,1,6,10)           -11.1348         calculate D2E/DX2 analytically  !
 ! D6    D(2,1,6,16)           178.8357         calculate D2E/DX2 analytically  !
 ! D7    D(11,1,6,10)          173.3373         calculate D2E/DX2 analytically  !
 ! D8    D(11,1,6,16)            3.3078         calculate D2E/DX2 analytically  !
 ! D9    D(1,2,3,4)            -89.047          calculate D2E/DX2 analytically  !
 ! D10   D(1,2,3,10)            17.2558         calculate D2E/DX2 analytically  !
 ! D11   D(1,2,3,13)           159.0429         calculate D2E/DX2 analytically  !
 ! D12   D(12,2,3,4)            90.1741         calculate D2E/DX2 analytically  !
 ! D13   D(12,2,3,10)         -163.5232         calculate D2E/DX2 analytically  !
 ! D14   D(12,2,3,13)          -21.7361         calculate D2E/DX2 analytically  !
 ! D15   D(2,3,4,5)             61.1743         calculate D2E/DX2 analytically  !
 ! D16   D(2,3,4,9)            -49.422          calculate D2E/DX2 analytically  !
 ! D17   D(2,3,4,14)          -172.437          calculate D2E/DX2 analytically  !
 ! D18   D(10,3,4,5)           -49.4288         calculate D2E/DX2 analytically  !
 ! D19   D(10,3,4,9)          -160.0252         calculate D2E/DX2 analytically  !
 ! D20   D(10,3,4,14)           76.9598         calculate D2E/DX2 analytically  !
 ! D21   D(13,3,4,5)          -172.4431         calculate D2E/DX2 analytically  !
 ! D22   D(13,3,4,9)            76.9606         calculate D2E/DX2 analytically  !
 ! D23   D(13,3,4,14)          -46.0545         calculate D2E/DX2 analytically  !
 ! D24   D(2,3,10,6)           -22.4664         calculate D2E/DX2 analytically  !
 ! D25   D(2,3,10,21)           92.6749         calculate D2E/DX2 analytically  !
 ! D26   D(2,3,10,22)         -147.2405         calculate D2E/DX2 analytically  !
 ! D27   D(4,3,10,6)            88.115          calculate D2E/DX2 analytically  !
 ! D28   D(4,3,10,21)         -156.7437         calculate D2E/DX2 analytically  !
 ! D29   D(4,3,10,22)          -36.6591         calculate D2E/DX2 analytically  !
 ! D30   D(13,3,10,6)         -164.7517         calculate D2E/DX2 analytically  !
 ! D31   D(13,3,10,21)         -49.6104         calculate D2E/DX2 analytically  !
 ! D32   D(13,3,10,22)          70.4742         calculate D2E/DX2 analytically  !
 ! D33   D(3,4,5,7)            -89.041          calculate D2E/DX2 analytically  !
 ! D34   D(3,4,5,15)            90.1866         calculate D2E/DX2 analytically  !
 ! D35   D(9,4,5,7)             17.262          calculate D2E/DX2 analytically  !
 ! D36   D(9,4,5,15)          -163.5104         calculate D2E/DX2 analytically  !
 ! D37   D(14,4,5,7)           159.0378         calculate D2E/DX2 analytically  !
 ! D38   D(14,4,5,15)          -21.7345         calculate D2E/DX2 analytically  !
 ! D39   D(3,4,9,8)             88.1172         calculate D2E/DX2 analytically  !
 ! D40   D(3,4,9,19)          -156.7314         calculate D2E/DX2 analytically  !
 ! D41   D(3,4,9,20)           -36.6553         calculate D2E/DX2 analytically  !
 ! D42   D(5,4,9,8)            -22.4638         calculate D2E/DX2 analytically  !
 ! D43   D(5,4,9,19)            92.6877         calculate D2E/DX2 analytically  !
 ! D44   D(5,4,9,20)          -147.2362         calculate D2E/DX2 analytically  !
 ! D45   D(14,4,9,8)          -164.7399         calculate D2E/DX2 analytically  !
 ! D46   D(14,4,9,19)          -49.5885         calculate D2E/DX2 analytically  !
 ! D47   D(14,4,9,20)           70.4876         calculate D2E/DX2 analytically  !
 ! D48   D(4,5,7,8)             -4.1324         calculate D2E/DX2 analytically  !
 ! D49   D(4,5,7,17)           171.4496         calculate D2E/DX2 analytically  !
 ! D50   D(15,5,7,8)           176.6356         calculate D2E/DX2 analytically  !
 ! D51   D(15,5,7,17)           -7.7824         calculate D2E/DX2 analytically  !
 ! D52   D(1,6,10,3)            20.4613         calculate D2E/DX2 analytically  !
 ! D53   D(1,6,10,21)          -94.1667         calculate D2E/DX2 analytically  !
 ! D54   D(1,6,10,22)          144.9873         calculate D2E/DX2 analytically  !
 ! D55   D(16,6,10,3)         -169.2572         calculate D2E/DX2 analytically  !
 ! D56   D(16,6,10,21)          76.1148         calculate D2E/DX2 analytically  !
 ! D57   D(16,6,10,22)         -44.7312         calculate D2E/DX2 analytically  !
 ! D58   D(5,7,8,9)            -11.117          calculate D2E/DX2 analytically  !
 ! D59   D(5,7,8,18)           178.8433         calculate D2E/DX2 analytically  !
 ! D60   D(17,7,8,9)           173.3508         calculate D2E/DX2 analytically  !
 ! D61   D(17,7,8,18)            3.3111         calculate D2E/DX2 analytically  !
 ! D62   D(7,8,9,4)             20.4499         calculate D2E/DX2 analytically  !
 ! D63   D(7,8,9,19)           -94.1879         calculate D2E/DX2 analytically  !
 ! D64   D(7,8,9,20)           144.9718         calculate D2E/DX2 analytically  !
 ! D65   D(18,8,9,4)          -169.2576         calculate D2E/DX2 analytically  !
 ! D66   D(18,8,9,19)           76.1046         calculate D2E/DX2 analytically  !
 ! D67   D(18,8,9,20)          -44.7356         calculate D2E/DX2 analytically  !
 --------------------------------------------------------------------------------
 Trust Radius=1.50D-01 FncErr=1.00D-07 GrdErr=1.00D-06 EigMax=2.50D+02 EigMin=1.00D-04
 Number of steps in this run=    132 maximum allowed number of steps=    132.
 Search for a saddle point of order  1.
 GradGradGradGradGradGradGradGradGradGradGradGradGradGradGradGradGradGrad

                          Input orientation:                          
 ---------------------------------------------------------------------
 Center     Atomic      Atomic             Coordinates (Angstroms)
 Number     Number       Type             X           Y           Z
 ---------------------------------------------------------------------
      1          6           0       -1.354400   -1.174700    0.665100
      2          6           0       -0.723300   -0.111500    1.367500
      3          6           0       -0.801400    1.058900    0.572800
      4          6           0        0.801300    1.058900   -0.572900
      5          6           0        0.723300   -0.111600   -1.367500
      6          6           0       -1.906900   -0.705200   -0.496200
      7          6           0        1.354400   -1.174800   -0.664900
      8          6           0        1.907100   -0.705200    0.496200
      9          6           0        1.882100    0.798900    0.469400
     10          6           0       -1.882100    0.798900   -0.469500
     11          1           0       -1.328900   -2.214100    0.973100
     12          1           0       -0.252700   -0.190800    2.337700
     13          1           0       -0.700100    2.046000    1.016100
     14          1           0        0.700100    2.046000   -1.016300
     15          1           0        0.252900   -0.191100   -2.337800
     16          1           0       -2.434400   -1.292300   -1.237700
     17          1           0        1.328800   -2.214300   -0.972700
     18          1           0        2.434700   -1.292100    1.237700
     19          1           0        2.843800    1.174500    0.083200
     20          1           0        1.712300    1.279000    1.436500
     21          1           0       -2.843800    1.174300   -0.083200
     22          1           0       -1.712400    1.279000   -1.436600
 ---------------------------------------------------------------------
                    Distance matrix (angstroms):
                    1          2          3          4          5
     1  C    0.000000
     2  C    1.421987   0.000000
     3  C    2.302889   1.416857   0.000000
     4  C    3.341954   2.731189   1.970095   0.000000
     5  C    3.094912   3.094007   2.731217   1.416878   0.000000
     6  C    1.369052   2.286212   2.340286   3.232998   2.833633
     7  C    3.017697   3.094850   3.341974   2.302998   1.422086
     8  C    3.299445   2.833840   3.233247   2.340474   2.286290
     9  C    3.795830   2.902330   2.698048   1.523850   2.355001
    10  C    2.336853   2.355040   1.523779   2.697949   2.902331
    11  H    1.084374   2.223337   3.339315   4.200047   3.756386
    12  H    2.231455   1.081222   2.231075   3.338302   3.832409
    13  H    3.305180   2.186053   1.086804   2.398643   3.516085
    14  H    4.173845   3.516159   2.398772   1.086836   2.186119
    15  H    3.545179   3.832565   3.338509   2.231169   1.081239
    16  H    2.191091   3.333049   3.387143   4.054609   3.373718
    17  H    3.311000   3.756251   4.200019   3.339451   2.223476
    18  H    3.833919   3.373963   4.054829   3.387251   3.333097
    19  H    4.845847   4.003427   3.679749   2.148403   2.873170
    20  H    4.002543   2.805423   2.667041   2.217217   3.282424
    21  H    2.880289   2.873035   2.148267   3.679657   4.003395
    22  H    3.250531   3.282497   2.217217   2.667041   2.805562
                    6          7          8          9         10
     6  C    0.000000
     7  C    3.299252   0.000000
     8  C    3.940997   1.368998   0.000000
     9  C    4.189418   2.336792   1.504546   0.000000
    10  C    1.504541   3.795867   4.189622   3.879528   0.000000
    11  H    2.183966   3.311086   3.602209   4.431975   3.386044
    12  H    3.321442   3.544945   2.884522   3.004567   3.393350
    13  H    3.363409   4.173761   3.825819   2.919229   2.271429
    14  H    3.825710   3.305320   3.363571   2.271494   2.919247
    15  H    2.884532   2.231493   3.321480   3.393341   3.004808
    16  H    1.082943   3.833655   4.711658   5.091118   2.295274
    17  H    3.601970   1.084415   2.183914   3.386025   4.431982
    18  H    4.711725   2.191049   1.082883   2.295198   5.091324
    19  H    5.141802   2.880482   2.140385   1.102312   4.772911
    20  H    4.557520   3.250401   2.204350   1.092982   4.096711
    21  H    2.140297   4.845774   5.141914   4.772884   1.102279
    22  H    2.204367   4.002739   4.557801   4.096799   1.092967
                   11         12         13         14         15
    11  H    0.000000
    12  H    2.667224   0.000000
    13  H    4.306471   2.636298   0.000000
    14  H    5.120840   4.142513   2.468038   0.000000
    15  H    4.190069   4.702758   4.142641   2.636469   0.000000
    16  H    2.638083   4.330889   4.385391   4.584578   3.105550
    17  H    3.293859   4.189802   5.120734   4.306660   2.667283
    18  H    3.883913   3.105637   4.584647   4.385461   4.330895
    19  H    5.448482   4.066341   3.766834   2.562004   3.799851
    20  H    4.654609   2.614134   2.566067   2.762076   4.305390
    21  H    3.859008   3.799744   2.561986   3.766930   4.066582
    22  H    4.260924   4.305389   2.762024   2.566144   2.614529
                   16         17         18         19         20
    16  H    0.000000
    17  H    3.883553   0.000000
    18  H    5.462210   2.638055   0.000000
    19  H    5.974050   3.859289   2.753970   0.000000
    20  H    5.563996   4.260805   2.678047   1.767097   0.000000
    21  H    2.754014   5.448340   5.974150   5.690034   4.804008
    22  H    2.678139   4.654809   5.564250   4.804131   4.470266
                   21         22
    21  H    0.000000
    22  H    1.767122   0.000000
 Stoichiometry    C10H12
 Framework group  C1[X(C10H12)]
 Deg. of freedom    60
 Full point group                 C1      NOp   1
 Largest Abelian subgroup         C1      NOp   1
 Largest concise Abelian subgroup C1      NOp   1
                         Standard orientation:                         
 ---------------------------------------------------------------------
 Center     Atomic      Atomic             Coordinates (Angstroms)
 Number     Number       Type             X           Y           Z
 ---------------------------------------------------------------------
      1          6           0       -1.354382    1.174731   -0.665100
      2          6           0       -0.723310    0.111515   -1.367500
      3          6           0       -0.801440   -1.058883   -0.572800
      4          6           0        0.801260   -1.058925    0.572900
      5          6           0        0.723290    0.111577    1.367500
      6          6           0       -1.906894    0.705246    0.496200
      7          6           0        1.354418    1.174760    0.664900
      8          6           0        1.907106    0.705146   -0.496200
      9          6           0        1.882066   -0.798954   -0.469400
     10          6           0       -1.882134   -0.798855    0.469500
     11          1           0       -1.328854    2.214131   -0.973100
     12          1           0       -0.252707    0.190802   -2.337700
     13          1           0       -0.700166   -2.045986   -1.016100
     14          1           0        0.700034   -2.046023    1.016300
     15          1           0        0.252893    0.191089    2.337800
     16          1           0       -2.434379    1.292360    1.237700
     17          1           0        1.328846    2.214261    0.972700
     18          1           0        2.434721    1.292032   -1.237700
     19          1           0        2.843757   -1.174579   -0.083200
     20          1           0        1.712254   -1.279049   -1.436500
     21          1           0       -2.843843   -1.174229    0.083200
     22          1           0       -1.712446   -1.278959    1.436600
 ---------------------------------------------------------------------
 Rotational constants (GHZ):           2.3835165           1.3300935           1.2674805
 Standard basis: 6-311G(d,p) (5D, 7F)
 There are   262 symmetry adapted cartesian basis functions of A   symmetry.
 There are   252 symmetry adapted basis functions of A   symmetry.
   252 basis functions,   416 primitive gaussians,   262 cartesian basis functions
    36 alpha electrons       36 beta electrons
       nuclear repulsion energy       521.1941310745 Hartrees.
 NAtoms=   22 NActive=   22 NUniq=   22 SFac= 1.00D+00 NAtFMM=   60 NAOKFM=F Big=F
 Integral buffers will be    131072 words long.
 Raffenetti 2 integral format.
 Two-electron integral symmetry is turned on.
 Nuclear repulsion after empirical dispersion term =      521.1485560601 Hartrees.
 Force inversion solution in PCM.
 ------------------------------------------------------------------------------
 Polarizable Continuum Model (PCM)
 =================================
 Model                : PCM.
 Atomic radii         : UFF (Universal Force Field).
 Polarization charges : Total charges.
 Charge compensation  : None.
 Solution method      : Matrix inversion.
 Cavity type          : Scaled VdW (van der Waals Surface) (Alpha=1.100).
 Cavity algorithm     : GePol (No added spheres)
                        Default sphere list used, NSphG=   22.
                        Lebedev-Laikov grids with approx.  5.0 points / Ang**2.
                        Smoothing algorithm: York/Karplus (Gamma=1.0000).
                        Polarization charges: spherical gaussians, with
                                              point-specific exponents (IZeta= 3).
                        Self-potential: point-specific (ISelfS= 7).
                        Self-field    : sphere-specific E.n sum rule (ISelfD= 2).
 1st derivatives      : Analytical E(r).r(x)/FMM algorithm (CHGder, D1EAlg=3).
                        Cavity 1st derivative terms included.
 2nd derivatives      : Analytical E(r).r(xy)/FMM algorithm (CHGder, D2EAlg=3).
                        Cavity 2nd derivative terms included.
 Solvent              : Cis-Decalin, Eps=   2.213900 Eps(inf)=   2.193361
 ------------------------------------------------------------------------------
 One-electron integrals computed using PRISM.
 NBasis=   252 RedAO= T EigKep=  5.26D-04  NBF=   252
 NBsUse=   252 1.00D-06 EigRej= -1.00D+00 NBFU=   252
 ExpMin= 1.03D-01 ExpMax= 4.56D+03 ExpMxC= 6.82D+02 IAcc=3 IRadAn=         5 AccDes= 0.00D+00
 Harris functional with IExCor=  402 and IRadAn=       5 diagonalized for initial guess.
 HarFok:  IExCor=  402 AccDes= 0.00D+00 IRadAn=         5 IDoV= 1 UseB2=F ITyADJ=14
 ICtDFT=  3500011 ScaDFX=  1.000000  1.000000  1.000000  1.000000
 FoFCou: FMM=F IPFlag=           0 FMFlag=      100000 FMFlg1=           0
         NFxFlg=           0 DoJE=T BraDBF=F KetDBF=T FulRan=T
         wScrn=  0.000000 ICntrl=       500 IOpCl=  0 I1Cent=   200000004 NGrid=           0
         NMat0=    1 NMatS0=      1 NMatT0=    0 NMatD0=    1 NMtDS0=    0 NMtDT0=    0
 Petite list used in FoFCou.
 Requested convergence on RMS density matrix=1.00D-08 within 128 cycles.
 Requested convergence on MAX density matrix=1.00D-06.
 Requested convergence on             energy=1.00D-06.
 No special actions if energy rises.
 Inv3:  Mode=1 IEnd=     7041072.
 Iteration    1 A*A^-1 deviation from unit magnitude is 3.33D-15 for   1529.
 Iteration    1 A*A^-1 deviation from orthogonality  is 2.34D-15 for   1213    205.
 Iteration    1 A^-1*A deviation from unit magnitude is 3.33D-15 for   1529.
 Iteration    1 A^-1*A deviation from orthogonality  is 1.73D-15 for   1333    883.
 Error on total polarization charges =  0.00621
 SCF Done:  E(RB3LYP) =  -388.319266809     A.U. after   12 cycles
            NFock= 12  Conv=0.37D-08     -V/T= 2.0049
 DoSCS=F DFT=T ScalE2(SS,OS)=  1.000000  1.000000
 Range of M.O.s used for correlation:     1   252
 NBasis=   252 NAE=    36 NBE=    36 NFC=     0 NFV=     0
 NROrb=    252 NOA=    36 NOB=    36 NVA=   216 NVB=   216
 Symmetrizing basis deriv contribution to polar:
 IMax=3 JMax=2 DiffMx= 0.00D+00
 G2DrvN: will do    23 centers at a time, making    1 passes.
 Calling FoFCou, ICntrl=  3107 FMM=F I1Cent=   0 AccDes= 0.00D+00.
 NEqPCM:  Using equilibrium solvation (IEInf=0, Eps=   2.2139, EpsInf=   2.1934)
 G2PCM: DoFxE=T DoFxN=T DoGrad=T DoDP/DQ/DG/TGxP=FFFF NFrqRd=   0 IEInf=0 SqF1=F DoCFld=F IF1Alg=4.
 End of G2Drv F.D. properties file   721 does not exist.
 End of G2Drv F.D. properties file   722 does not exist.
 End of G2Drv F.D. properties file   788 does not exist.
          IDoAtm=1111111111111111111111
 NEqPCM:  Using equilibrium solvation (IEInf=0, Eps=   2.2139, EpsInf=   2.1934)
          Differentiating once with respect to electric field.
                with respect to dipole field.
          Differentiating once with respect to nuclear coordinates.
 Keep R1 ints in memory in canonical form, NReq=629995426.
          There are    69 degrees of freedom in the 1st order CPHF.  IDoFFX=6 NUNeed=     3.
     66 vectors produced by pass  0 Test12= 1.13D-14 1.45D-09 XBig12= 2.89D+02 1.50D+01.
 AX will form    66 AO Fock derivatives at one time.
     66 vectors produced by pass  1 Test12= 1.13D-14 1.45D-09 XBig12= 4.58D+01 1.25D+00.
     66 vectors produced by pass  2 Test12= 1.13D-14 1.45D-09 XBig12= 4.16D-01 1.15D-01.
     66 vectors produced by pass  3 Test12= 1.13D-14 1.45D-09 XBig12= 9.83D-04 5.83D-03.
     66 vectors produced by pass  4 Test12= 1.13D-14 1.45D-09 XBig12= 1.76D-06 2.33D-04.
     47 vectors produced by pass  5 Test12= 1.13D-14 1.45D-09 XBig12= 1.87D-09 5.02D-06.
      6 vectors produced by pass  6 Test12= 1.13D-14 1.45D-09 XBig12= 1.92D-12 2.26D-07.
      3 vectors produced by pass  7 Test12= 1.13D-14 1.45D-09 XBig12= 1.92D-15 5.58D-09.
 InvSVY:  IOpt=1 It=  1 EMax= 1.07D-14
 Solved reduced A of dimension   386 with    69 vectors.
 Isotropic polarizability for W=    0.000000      133.19 Bohr**3.
 End of Minotr F.D. properties file   721 does not exist.
 End of Minotr F.D. properties file   722 does not exist.
 End of Minotr F.D. properties file   788 does not exist.

 **********************************************************************

            Population analysis using the SCF density.

 **********************************************************************

 Orbital symmetries:
       Occupied  (A) (A) (A) (A) (A) (A) (A) (A) (A) (A) (A) (A)
                 (A) (A) (A) (A) (A) (A) (A) (A) (A) (A) (A) (A)
                 (A) (A) (A) (A) (A) (A) (A) (A) (A) (A) (A) (A)
       Virtual   (A) (A) (A) (A) (A) (A) (A) (A) (A) (A) (A) (A)
                 (A) (A) (A) (A) (A) (A) (A) (A) (A) (A) (A) (A)
                 (A) (A) (A) (A) (A) (A) (A) (A) (A) (A) (A) (A)
                 (A) (A) (A) (A) (A) (A) (A) (A) (A) (A) (A) (A)
                 (A) (A) (A) (A) (A) (A) (A) (A) (A) (A) (A) (A)
                 (A) (A) (A) (A) (A) (A) (A) (A) (A) (A) (A) (A)
                 (A) (A) (A) (A) (A) (A) (A) (A) (A) (A) (A) (A)
                 (A) (A) (A) (A) (A) (A) (A) (A) (A) (A) (A) (A)
                 (A) (A) (A) (A) (A) (A) (A) (A) (A) (A) (A) (A)
                 (A) (A) (A) (A) (A) (A) (A) (A) (A) (A) (A) (A)
                 (A) (A) (A) (A) (A) (A) (A) (A) (A) (A) (A) (A)
                 (A) (A) (A) (A) (A) (A) (A) (A) (A) (A) (A) (A)
                 (A) (A) (A) (A) (A) (A) (A) (A) (A) (A) (A) (A)
                 (A) (A) (A) (A) (A) (A) (A) (A) (A) (A) (A) (A)
                 (A) (A) (A) (A) (A) (A) (A) (A) (A) (A) (A) (A)
                 (A) (A) (A) (A) (A) (A) (A) (A) (A) (A) (A) (A)
                 (A) (A) (A) (A) (A) (A) (A) (A) (A) (A) (A) (A)
                 (A) (A) (A) (A) (A) (A) (A) (A) (A) (A) (A) (A)
 The electronic state is 1-A.
 Alpha  occ. eigenvalues --  -10.17923 -10.17922 -10.16926 -10.16926 -10.16487
 Alpha  occ. eigenvalues --  -10.16486 -10.16147 -10.16145 -10.16078 -10.16076
 Alpha  occ. eigenvalues --   -0.86768  -0.83866  -0.71755  -0.70600  -0.69053
 Alpha  occ. eigenvalues --   -0.68273  -0.55857  -0.55023  -0.53138  -0.51559
 Alpha  occ. eigenvalues --   -0.51499  -0.49992  -0.45210  -0.42135  -0.39192
 Alpha  occ. eigenvalues --   -0.38038  -0.37450  -0.36967  -0.36367  -0.36031
 Alpha  occ. eigenvalues --   -0.35654  -0.34264  -0.31783  -0.26341  -0.25888
 Alpha  occ. eigenvalues --   -0.18255
 Alpha virt. eigenvalues --   -0.03923   0.02810   0.03053   0.04638   0.07381
 Alpha virt. eigenvalues --    0.07743   0.07789   0.09598   0.09754   0.10820
 Alpha virt. eigenvalues --    0.10912   0.12447   0.12788   0.14899   0.15029
 Alpha virt. eigenvalues --    0.17538   0.18666   0.19891   0.21803   0.22752
 Alpha virt. eigenvalues --    0.26467   0.27606   0.30523   0.31162   0.31719
 Alpha virt. eigenvalues --    0.32678   0.35375   0.37937   0.38138   0.38508
 Alpha virt. eigenvalues --    0.39230   0.40532   0.41450   0.41935   0.43163
 Alpha virt. eigenvalues --    0.44423   0.44897   0.45644   0.46409   0.49543
 Alpha virt. eigenvalues --    0.50067   0.52111   0.54883   0.55248   0.55978
 Alpha virt. eigenvalues --    0.56289   0.58745   0.59018   0.59710   0.59747
 Alpha virt. eigenvalues --    0.60514   0.61269   0.61940   0.63587   0.63983
 Alpha virt. eigenvalues --    0.64501   0.65595   0.66320   0.67970   0.69828
 Alpha virt. eigenvalues --    0.70130   0.70685   0.71572   0.74134   0.75732
 Alpha virt. eigenvalues --    0.78539   0.80975   0.82645   0.85895   0.87238
 Alpha virt. eigenvalues --    0.88313   0.90889   0.92729   0.97810   0.99458
 Alpha virt. eigenvalues --    1.04938   1.05377   1.06167   1.09518   1.14946
 Alpha virt. eigenvalues --    1.15013   1.18965   1.19219   1.22528   1.22682
 Alpha virt. eigenvalues --    1.25869   1.29682   1.33644   1.38570   1.42009
 Alpha virt. eigenvalues --    1.46293   1.48194   1.49262   1.49831   1.51452
 Alpha virt. eigenvalues --    1.51781   1.52796   1.54348   1.55790   1.57297
 Alpha virt. eigenvalues --    1.58538   1.59390   1.59867   1.60625   1.61412
 Alpha virt. eigenvalues --    1.63929   1.64610   1.66874   1.67818   1.71319
 Alpha virt. eigenvalues --    1.71703   1.72839   1.74403   1.76213   1.77421
 Alpha virt. eigenvalues --    1.77496   1.82082   1.82403   1.82732   1.83622
 Alpha virt. eigenvalues --    1.84163   1.86168   1.86337   1.87680   1.88899
 Alpha virt. eigenvalues --    1.92139   1.92308   1.93900   1.97534   1.98043
 Alpha virt. eigenvalues --    2.00097   2.00593   2.02036   2.06055   2.07643
 Alpha virt. eigenvalues --    2.12867   2.13099   2.16338   2.16868   2.17454
 Alpha virt. eigenvalues --    2.21852   2.22378   2.26476   2.29991   2.32837
 Alpha virt. eigenvalues --    2.34748   2.36467   2.37106   2.39849   2.41717
 Alpha virt. eigenvalues --    2.44519   2.45246   2.48457   2.49674   2.50702
 Alpha virt. eigenvalues --    2.52618   2.60198   2.60418   2.60433   2.62663
 Alpha virt. eigenvalues --    2.63749   2.67487   2.68069   2.69079   2.70533
 Alpha virt. eigenvalues --    2.70946   2.74272   2.74942   2.76719   2.78410
 Alpha virt. eigenvalues --    2.80889   2.84281   2.86961   2.90553   2.91626
 Alpha virt. eigenvalues --    2.91787   2.93234   2.95756   3.00535   3.04579
 Alpha virt. eigenvalues --    3.09188   3.09211   3.10771   3.17589   3.19376
 Alpha virt. eigenvalues --    3.30446   3.32359   3.39556   3.42915   3.44282
 Alpha virt. eigenvalues --    3.46423   3.47811   3.54152   3.59448   3.76797
 Alpha virt. eigenvalues --    3.78971   4.03191   4.03586   4.06368   4.08721
 Alpha virt. eigenvalues --    4.09266   4.12548   4.15537   4.19369   4.49162
 Alpha virt. eigenvalues --    4.51729  23.63140  23.75383  23.88674  23.89050
 Alpha virt. eigenvalues --   23.90732  23.99168  24.08344  24.09745  24.18748
 Alpha virt. eigenvalues --   24.19210
          Condensed to atoms (all electrons):
               1          2          3          4          5          6
     1  C    4.869202   0.465816  -0.077144  -0.009055   0.007080   0.553339
     2  C    0.465816   5.051726   0.482561  -0.059305  -0.056383  -0.091655
     3  C   -0.077144   0.482561   5.203170   0.137989  -0.059317  -0.089493
     4  C   -0.009055  -0.059305   0.137989   5.203149   0.482541  -0.016871
     5  C    0.007080  -0.056383  -0.059317   0.482541   5.051774   0.044992
     6  C    0.553339  -0.091655  -0.089493  -0.016871   0.044992   5.099169
     7  C   -0.016641   0.007082  -0.009056  -0.077121   0.465785  -0.011971
     8  C   -0.011969   0.044952  -0.016859  -0.089452  -0.091643  -0.003689
     9  C    0.000534  -0.013098  -0.041686   0.374517  -0.092476   0.000960
    10  C   -0.088807  -0.092458   0.374505  -0.041692  -0.013090   0.368622
    11  H    0.421051  -0.044511   0.006599  -0.000192   0.000274  -0.045160
    12  H   -0.036723   0.419362  -0.040755  -0.001389   0.000238   0.006397
    13  H    0.007719  -0.036173   0.407119  -0.020616   0.003926   0.006299
    14  H   -0.000161   0.003925  -0.020611   0.407114  -0.036165  -0.000246
    15  H   -0.000469   0.000238  -0.001387  -0.040748   0.419352   0.002476
    16  H   -0.038187   0.008424   0.005115   0.000316  -0.001745   0.416673
    17  H    0.001953   0.000274  -0.000192   0.006595  -0.044504   0.000538
    18  H    0.000146  -0.001741   0.000316   0.005112   0.008422   0.000048
    19  H   -0.000232   0.003548   0.006906  -0.030731  -0.000463  -0.000252
    20  H    0.000850  -0.003623  -0.003917  -0.042784   0.008405   0.000129
    21  H   -0.002115  -0.000464  -0.030740   0.006909   0.003548  -0.037042
    22  H    0.005761   0.008401  -0.042771  -0.003918  -0.003621  -0.037051
               7          8          9         10         11         12
     1  C   -0.016641  -0.011969   0.000534  -0.088807   0.421051  -0.036723
     2  C    0.007082   0.044952  -0.013098  -0.092458  -0.044511   0.419362
     3  C   -0.009056  -0.016859  -0.041686   0.374505   0.006599  -0.040755
     4  C   -0.077121  -0.089452   0.374517  -0.041692  -0.000192  -0.001389
     5  C    0.465785  -0.091643  -0.092476  -0.013090   0.000274   0.000238
     6  C   -0.011971  -0.003689   0.000960   0.368622  -0.045160   0.006397
     7  C    4.869202   0.553391  -0.088841   0.000532   0.001952  -0.000468
     8  C    0.553391   5.099052   0.368625   0.000959   0.000538   0.002478
     9  C   -0.088841   0.368625   4.894008   0.004418  -0.000077  -0.000074
    10  C    0.000532   0.000959   0.004418   4.893935   0.008533   0.006680
    11  H    0.001952   0.000538  -0.000077   0.008533   0.573115  -0.002990
    12  H   -0.000468   0.002478  -0.000074   0.006680  -0.002990   0.550678
    13  H   -0.000161  -0.000246  -0.002755  -0.029594  -0.000273  -0.003875
    14  H    0.007717   0.006296  -0.029592  -0.002755   0.000033  -0.000078
    15  H   -0.036725   0.006396   0.006681  -0.000074  -0.000047   0.000004
    16  H    0.000146   0.000048  -0.000002  -0.037529  -0.004843  -0.000312
    17  H    0.421039  -0.045166   0.008537  -0.000077   0.000115  -0.000047
    18  H   -0.038179   0.416687  -0.037531  -0.000002   0.000023   0.000267
    19  H   -0.002111  -0.037036   0.386686  -0.000262  -0.000001   0.000112
    20  H    0.005759  -0.037056   0.409194   0.000527  -0.000012  -0.000150
    21  H   -0.000231  -0.000252  -0.000262   0.386698  -0.000420  -0.000304
    22  H    0.000849   0.000129   0.000527   0.409201  -0.000261  -0.000292
              13         14         15         16         17         18
     1  C    0.007719  -0.000161  -0.000469  -0.038187   0.001953   0.000146
     2  C   -0.036173   0.003925   0.000238   0.008424   0.000274  -0.001741
     3  C    0.407119  -0.020611  -0.001387   0.005115  -0.000192   0.000316
     4  C   -0.020616   0.407114  -0.040748   0.000316   0.006595   0.005112
     5  C    0.003926  -0.036165   0.419352  -0.001745  -0.044504   0.008422
     6  C    0.006299  -0.000246   0.002476   0.416673   0.000538   0.000048
     7  C   -0.000161   0.007717  -0.036725   0.000146   0.421039  -0.038179
     8  C   -0.000246   0.006296   0.006396   0.000048  -0.045166   0.416687
     9  C   -0.002755  -0.029592   0.006681  -0.000002   0.008537  -0.037531
    10  C   -0.029594  -0.002755  -0.000074  -0.037529  -0.000077  -0.000002
    11  H   -0.000273   0.000033  -0.000047  -0.004843   0.000115   0.000023
    12  H   -0.003875  -0.000078   0.000004  -0.000312  -0.000047   0.000267
    13  H    0.549590  -0.002930  -0.000078  -0.000322   0.000033   0.000021
    14  H   -0.002930   0.549579  -0.003874   0.000021  -0.000273  -0.000322
    15  H   -0.000078  -0.003874   0.550676   0.000267  -0.002988  -0.000312
    16  H   -0.000322   0.000021   0.000267   0.559307   0.000023  -0.000000
    17  H    0.000033  -0.000273  -0.002988   0.000023   0.573124  -0.004844
    18  H    0.000021  -0.000322  -0.000312  -0.000000  -0.004844   0.559282
    19  H   -0.000352  -0.001941  -0.000304   0.000001  -0.000420   0.000318
    20  H    0.002277  -0.000830  -0.000292  -0.000005  -0.000261  -0.001991
    21  H   -0.001942  -0.000352   0.000112   0.000317  -0.000001   0.000001
    22  H   -0.000831   0.002275  -0.000149  -0.001992  -0.000012  -0.000005
              19         20         21         22
     1  C   -0.000232   0.000850  -0.002115   0.005761
     2  C    0.003548  -0.003623  -0.000464   0.008401
     3  C    0.006906  -0.003917  -0.030740  -0.042771
     4  C   -0.030731  -0.042784   0.006909  -0.003918
     5  C   -0.000463   0.008405   0.003548  -0.003621
     6  C   -0.000252   0.000129  -0.037042  -0.037051
     7  C   -0.002111   0.005759  -0.000231   0.000849
     8  C   -0.037036  -0.037056  -0.000252   0.000129
     9  C    0.386686   0.409194  -0.000262   0.000527
    10  C   -0.000262   0.000527   0.386698   0.409201
    11  H   -0.000001  -0.000012  -0.000420  -0.000261
    12  H    0.000112  -0.000150  -0.000304  -0.000292
    13  H   -0.000352   0.002277  -0.001942  -0.000831
    14  H   -0.001941  -0.000830  -0.000352   0.002275
    15  H   -0.000304  -0.000292   0.000112  -0.000149
    16  H    0.000001  -0.000005   0.000317  -0.001992
    17  H   -0.000420  -0.000261  -0.000001  -0.000012
    18  H    0.000318  -0.001991   0.000001  -0.000005
    19  H    0.578311  -0.032590  -0.000003  -0.000050
    20  H   -0.032590   0.578875  -0.000050  -0.000021
    21  H   -0.000003  -0.000050   0.578291  -0.032583
    22  H   -0.000050  -0.000021  -0.032583   0.578833
 Mulliken charges:
               1
     1  C   -0.051948
     2  C   -0.096894
     3  C   -0.190349
     4  C   -0.190368
     5  C   -0.096928
     6  C   -0.166213
     7  C   -0.051949
     8  C   -0.166182
     9  C   -0.148291
    10  C   -0.148270
    11  H    0.086554
    12  H    0.101241
    13  H    0.123166
    14  H    0.123172
    15  H    0.101246
    16  H    0.094277
    17  H    0.086554
    18  H    0.094284
    19  H    0.130866
    20  H    0.117568
    21  H    0.130882
    22  H    0.117580
 Sum of Mulliken charges =  -0.00000
 Mulliken charges with hydrogens summed into heavy atoms:
               1
     1  C    0.034606
     2  C    0.004347
     3  C   -0.067183
     4  C   -0.067196
     5  C    0.004318
     6  C   -0.071936
     7  C    0.034605
     8  C   -0.071898
     9  C    0.100143
    10  C    0.100193
 APT charges:
               1
     1  C   -0.015099
     2  C   -0.137472
     3  C    0.086519
     4  C    0.086501
     5  C   -0.137420
     6  C   -0.031023
     7  C   -0.015077
     8  C   -0.031142
     9  C    0.016017
    10  C    0.015923
    11  H    0.040881
    12  H    0.049652
    13  H    0.001326
    14  H    0.001330
    15  H    0.049641
    16  H    0.017402
    17  H    0.040858
    18  H    0.017471
    19  H   -0.031253
    20  H    0.003077
    21  H   -0.031223
    22  H    0.003111
 Sum of APT charges =   0.00000
 APT charges with hydrogens summed into heavy atoms:
               1
     1  C    0.025782
     2  C   -0.087820
     3  C    0.087845
     4  C    0.087830
     5  C   -0.087779
     6  C   -0.013621
     7  C    0.025781
     8  C   -0.013671
     9  C   -0.012159
    10  C   -0.012188
 Electronic spatial extent (au):  <R**2>=           1174.4198
 Charge=              0.0000 electrons
 Dipole moment (field-independent basis, Debye):
    X=             -0.0001    Y=             -0.5522    Z=             -0.0001  Tot=              0.5522
 Quadrupole moment (field-independent basis, Debye-Ang):
   XX=            -62.8244   YY=            -57.0673   ZZ=            -59.7706
   XY=              0.0003   XZ=             -3.8936   YZ=             -0.0006
 Traceless Quadrupole moment (field-independent basis, Debye-Ang):
   XX=             -2.9369   YY=              2.8201   ZZ=              0.1168
   XY=              0.0003   XZ=             -3.8936   YZ=             -0.0006
 Octapole moment (field-independent basis, Debye-Ang**2):
  XXX=             -0.0003  YYY=              2.2620  ZZZ=              0.0005  XYY=             -0.0005
  XXY=             -2.3928  XXZ=             -0.0021  XZZ=              0.0003  YZZ=              1.0950
  YYZ=              0.0003  XYZ=             -1.0808
 Hexadecapole moment (field-independent basis, Debye-Ang**3):
 XXXX=           -895.5723 YYYY=           -390.6684 ZZZZ=           -349.2049 XXXY=              0.0046
 XXXZ=            -25.7855 YYYX=             -0.0002 YYYZ=             -0.0004 ZZZX=            -17.8727
 ZZZY=              0.0023 XXYY=           -210.0701 XXZZ=           -212.9135 YYZZ=           -123.4810
 XXYZ=             -0.0024 YYXZ=             -1.1914 ZZXY=              0.0001
 N-N= 5.211485560601D+02 E-N=-1.942854465208D+03  KE= 3.864316682515D+02
  Exact polarizability: 162.193  -0.005 118.957  -3.133   0.001 118.429
 Approx polarizability: 250.630  -0.011 173.650   2.570   0.004 198.988
 D2PCM: PCM CHGder 2nd derivatives, FixD1E=F FixD2E=F DoIter=F DoCFld=F I1PDM=0
 Calling FoFJK, ICntrl=    100127 FMM=F ISym2X=0 I1Cent= 0 IOpClX= 0 NMat=1 NMatS=1 NMatT=0.
 ***** Axes restored to original set *****
 -------------------------------------------------------------------
 Center     Atomic                   Forces (Hartrees/Bohr)
 Number     Number              X              Y              Z
 -------------------------------------------------------------------
      1        6          -0.000384093    0.000197068   -0.001319501
      2        6           0.000155770    0.000298721   -0.000543240
      3        6          -0.001790386    0.000482866    0.001651317
      4        6           0.001843029    0.000439749   -0.001650488
      5        6          -0.000162178    0.000259151    0.000565841
      6        6          -0.001063299   -0.000795601    0.001646501
      7        6           0.000371259    0.000192186    0.001265839
      8        6           0.001031180   -0.000733951   -0.001667159
      9        6          -0.000170452    0.000497288    0.000974838
     10        6           0.000176755    0.000452909   -0.000967727
     11        1           0.000012273    0.001191354   -0.000411698
     12        1          -0.000549492    0.000051137   -0.001146120
     13        1           0.000290577   -0.001345567   -0.000803150
     14        1          -0.000293962   -0.001366097    0.000813453
     15        1           0.000546713    0.000058605    0.001159509
     16        1           0.000764085    0.000570455    0.000780180
     17        1          -0.000010960    0.001220360    0.000408647
     18        1          -0.000750586    0.000543698   -0.000754081
     19        1          -0.000936355   -0.000489561    0.000166387
     20        1           0.000110529   -0.000625381   -0.001156497
     21        1           0.000916617   -0.000478775   -0.000166991
     22        1          -0.000107024   -0.000620614    0.001154138
 -------------------------------------------------------------------
 Cartesian Forces:  Max     0.001843029 RMS     0.000857968
 FormGI is forming the generalized inverse of G from B-inverse, IUseBI=4.

 GradGradGradGradGradGradGradGradGradGradGradGradGradGradGradGradGradGrad
 Berny optimization.
 Internal  Forces:  Max     0.002236718 RMS     0.000584628
 Search for a saddle point.
 Step number   1 out of a maximum of  132
 All quantities printed in internal units (Hartrees-Bohrs-Radians)
 Swapping is turned off.
 Second derivative matrix not updated -- analytic derivatives used.
 ITU=  0
     Eigenvalues ---   -0.02993   0.00331   0.00898   0.00973   0.01021
     Eigenvalues ---    0.01106   0.01173   0.01423   0.01836   0.01950
     Eigenvalues ---    0.02422   0.03145   0.03288   0.03774   0.03953
     Eigenvalues ---    0.04275   0.04326   0.04659   0.04664   0.05428
     Eigenvalues ---    0.05890   0.06281   0.06291   0.07229   0.07625
     Eigenvalues ---    0.09253   0.09369   0.10380   0.10408   0.10645
     Eigenvalues ---    0.10681   0.12153   0.13863   0.17587   0.18470
     Eigenvalues ---    0.20601   0.21723   0.22915   0.24982   0.25389
     Eigenvalues ---    0.27442   0.28200   0.31407   0.31432   0.33446
     Eigenvalues ---    0.33453   0.34284   0.34756   0.35257   0.35660
     Eigenvalues ---    0.35678   0.35724   0.35818   0.36276   0.36465
     Eigenvalues ---    0.36938   0.37642   0.38456   0.47216   0.47767
 Eigenvectors required to have negative eigenvalues:
                          R6        R9        R4        D52       D62
   1                   -0.80952   0.12396   0.12394   0.12048   0.12038
                          D24       D42       D37       D11       D32
   1                   -0.10939  -0.10928  -0.10807  -0.10803   0.10738
 RFO step:  Lambda0=1.010073923D-04 Lambda=-1.72546224D-04.
 Linear search not attempted -- option 19 set.
 Iteration  1 RMS(Cart)=  0.00800208 RMS(Int)=  0.00003400
 Iteration  2 RMS(Cart)=  0.00005587 RMS(Int)=  0.00001260
 Iteration  3 RMS(Cart)=  0.00000000 RMS(Int)=  0.00001260
 Variable       Old X    -DE/DX   Delta X   Delta X   Delta X     New X
                                 (Linear)    (Quad)   (Total)
    R1        2.68717  -0.00054   0.00000  -0.00483  -0.00483   2.68233
    R2        2.58713  -0.00224   0.00000  -0.00294  -0.00296   2.58418
    R3        2.04917  -0.00126   0.00000  -0.00337  -0.00337   2.04580
    R4        2.67747  -0.00145   0.00000   0.00334   0.00335   2.68082
    R5        2.04321  -0.00127   0.00000  -0.00357  -0.00357   2.03965
    R6        3.72294   0.00121   0.00000  -0.05198  -0.05198   3.67096
    R7        2.87952  -0.00048   0.00000   0.00000   0.00002   2.87954
    R8        2.05376  -0.00152   0.00000  -0.00395  -0.00395   2.04981
    R9        2.67751  -0.00146   0.00000   0.00330   0.00331   2.68082
   R10        2.87966  -0.00051   0.00000  -0.00013  -0.00012   2.87954
   R11        2.05382  -0.00155   0.00000  -0.00401  -0.00401   2.04981
   R12        2.68735  -0.00061   0.00000  -0.00501  -0.00501   2.68234
   R13        2.04325  -0.00128   0.00000  -0.00360  -0.00360   2.03964
   R14        2.84317  -0.00066   0.00000  -0.00194  -0.00195   2.84122
   R15        2.04647  -0.00122   0.00000  -0.00336  -0.00336   2.04310
   R16        2.58703  -0.00221   0.00000  -0.00285  -0.00286   2.58417
   R17        2.04925  -0.00129   0.00000  -0.00345  -0.00345   2.04580
   R18        2.84318  -0.00067   0.00000  -0.00195  -0.00196   2.84123
   R19        2.04635  -0.00118   0.00000  -0.00325  -0.00325   2.04310
   R20        2.08307  -0.00104   0.00000  -0.00321  -0.00321   2.07986
   R21        2.06544  -0.00131   0.00000  -0.00395  -0.00395   2.06148
   R22        2.08301  -0.00102   0.00000  -0.00314  -0.00314   2.07986
   R23        2.06541  -0.00131   0.00000  -0.00392  -0.00392   2.06148
    A1        1.91952   0.00028   0.00000   0.00115   0.00115   1.92067
    A2        2.17237  -0.00011   0.00000   0.00004   0.00004   2.17241
    A3        2.18847  -0.00016   0.00000  -0.00102  -0.00102   2.18745
    A4        1.89242   0.00021   0.00000  -0.00014  -0.00013   1.89230
    A5        2.19145  -0.00014   0.00000   0.00024   0.00023   2.19168
    A6        2.19922  -0.00007   0.00000  -0.00010  -0.00011   2.19911
    A7        1.85599   0.00002   0.00000   0.00484   0.00484   1.86082
    A8        1.85647  -0.00046   0.00000  -0.00225  -0.00229   1.85418
    A9        2.11338   0.00042   0.00000  -0.00433  -0.00436   2.10902
   A10        1.75094   0.00075   0.00000   0.00968   0.00968   1.76062
   A11        1.73289  -0.00068   0.00000   0.00036   0.00038   1.73327
   A12        2.09450   0.00005   0.00000  -0.00302  -0.00306   2.09143
   A13        1.85600   0.00001   0.00000   0.00482   0.00482   1.86082
   A14        1.75099   0.00075   0.00000   0.00965   0.00964   1.76063
   A15        1.73301  -0.00068   0.00000   0.00022   0.00024   1.73325
   A16        1.85634  -0.00044   0.00000  -0.00212  -0.00216   1.85419
   A17        2.11342   0.00041   0.00000  -0.00437  -0.00439   2.10902
   A18        2.09446   0.00004   0.00000  -0.00298  -0.00303   2.09143
   A19        1.89244   0.00021   0.00000  -0.00016  -0.00014   1.89230
   A20        2.19933  -0.00008   0.00000  -0.00021  -0.00022   2.19911
   A21        2.19133  -0.00013   0.00000   0.00036   0.00035   2.19168
   A22        1.89772  -0.00011   0.00000   0.00099   0.00097   1.89869
   A23        2.20367  -0.00002   0.00000  -0.00014  -0.00017   2.20350
   A24        2.16779   0.00017   0.00000   0.00106   0.00104   2.16882
   A25        1.91957   0.00027   0.00000   0.00110   0.00110   1.92067
   A26        2.17239  -0.00011   0.00000   0.00002   0.00002   2.17241
   A27        2.18840  -0.00014   0.00000  -0.00095  -0.00095   2.18745
   A28        1.89769  -0.00009   0.00000   0.00102   0.00100   1.89870
   A29        2.20378  -0.00003   0.00000  -0.00025  -0.00028   2.20350
   A30        2.16773   0.00017   0.00000   0.00111   0.00109   2.16882
   A31        1.76658   0.00017   0.00000  -0.00016  -0.00013   1.76645
   A32        1.89759  -0.00020   0.00000  -0.00155  -0.00155   1.89604
   A33        2.00433   0.00001   0.00000  -0.00036  -0.00037   2.00396
   A34        1.90962  -0.00026   0.00000  -0.00077  -0.00078   1.90884
   A35        2.01080   0.00009   0.00000  -0.00000  -0.00001   2.01079
   A36        1.87116   0.00014   0.00000   0.00250   0.00251   1.87367
   A37        1.76645   0.00020   0.00000  -0.00003  -0.00000   1.76645
   A38        1.89752  -0.00020   0.00000  -0.00148  -0.00148   1.89604
   A39        2.00444  -0.00000   0.00000  -0.00047  -0.00048   2.00396
   A40        1.90954  -0.00026   0.00000  -0.00070  -0.00070   1.90884
   A41        2.01085   0.00009   0.00000  -0.00005  -0.00006   2.01079
   A42        1.87126   0.00015   0.00000   0.00241   0.00241   1.87367
    D1       -0.07184  -0.00020   0.00000  -0.00625  -0.00625  -0.07809
    D2        3.08327  -0.00035   0.00000  -0.00568  -0.00568   3.07759
    D3        2.99257   0.00000   0.00000  -0.00392  -0.00391   2.98866
    D4       -0.13550  -0.00015   0.00000  -0.00335  -0.00335  -0.13885
    D5       -0.19434   0.00032   0.00000   0.00505   0.00505  -0.18929
    D6        3.12127   0.00005   0.00000  -0.00681  -0.00680   3.11447
    D7        3.02531   0.00011   0.00000   0.00264   0.00264   3.02794
    D8        0.05773  -0.00015   0.00000  -0.00922  -0.00922   0.04852
    D9       -1.55416  -0.00075   0.00000  -0.00741  -0.00741  -1.56158
   D10        0.30117  -0.00009   0.00000   0.00438   0.00437   0.30554
   D11        2.77582  -0.00011   0.00000  -0.00918  -0.00916   2.76666
   D12        1.57383  -0.00060   0.00000  -0.00798  -0.00798   1.56585
   D13       -2.85402   0.00006   0.00000   0.00381   0.00380  -2.85022
   D14       -0.37937   0.00003   0.00000  -0.00974  -0.00973  -0.38910
   D15        1.06769  -0.00044   0.00000   0.00014   0.00018   1.06787
   D16       -0.86258  -0.00026   0.00000  -0.00271  -0.00271  -0.86528
   D17       -3.00959  -0.00031   0.00000  -0.00263  -0.00262  -3.01221
   D18       -0.86270  -0.00024   0.00000  -0.00258  -0.00258  -0.86528
   D19       -2.79297  -0.00005   0.00000  -0.00543  -0.00546  -2.79843
   D20        1.34320  -0.00010   0.00000  -0.00536  -0.00538   1.33783
   D21       -3.00970  -0.00030   0.00000  -0.00252  -0.00250  -3.01220
   D22        1.34322  -0.00011   0.00000  -0.00537  -0.00539   1.33783
   D23       -0.80380  -0.00017   0.00000  -0.00529  -0.00530  -0.80910
   D24       -0.39211   0.00027   0.00000  -0.00107  -0.00106  -0.39318
   D25        1.61748  -0.00001   0.00000  -0.00242  -0.00241   1.61507
   D26       -2.56983   0.00003   0.00000  -0.00072  -0.00072  -2.57055
   D27        1.53790   0.00044   0.00000   0.00720   0.00720   1.54510
   D28       -2.73569   0.00016   0.00000   0.00585   0.00585  -2.72984
   D29       -0.63982   0.00020   0.00000   0.00754   0.00754  -0.63228
   D30       -2.87546   0.00012   0.00000   0.01291   0.01291  -2.86255
   D31       -0.86587  -0.00016   0.00000   0.01156   0.01156  -0.85431
   D32        1.23001  -0.00012   0.00000   0.01326   0.01325   1.24326
   D33       -1.55406  -0.00076   0.00000  -0.00755  -0.00754  -1.56160
   D34        1.57405  -0.00061   0.00000  -0.00819  -0.00819   1.56586
   D35        0.30128  -0.00009   0.00000   0.00425   0.00425   0.30553
   D36       -2.85379   0.00006   0.00000   0.00361   0.00360  -2.85019
   D37        2.77573  -0.00011   0.00000  -0.00910  -0.00909   2.76665
   D38       -0.37934   0.00004   0.00000  -0.00974  -0.00973  -0.38907
   D39        1.53793   0.00044   0.00000   0.00718   0.00719   1.54512
   D40       -2.73548   0.00016   0.00000   0.00566   0.00566  -2.72982
   D41       -0.63976   0.00020   0.00000   0.00750   0.00750  -0.63225
   D42       -0.39207   0.00028   0.00000  -0.00109  -0.00109  -0.39315
   D43        1.61771  -0.00001   0.00000  -0.00262  -0.00261   1.61510
   D44       -2.56976   0.00004   0.00000  -0.00077  -0.00077  -2.57053
   D45       -2.87525   0.00012   0.00000   0.01273   0.01272  -2.86254
   D46       -0.86548  -0.00016   0.00000   0.01120   0.01119  -0.85429
   D47        1.23024  -0.00012   0.00000   0.01304   0.01304   1.24328
   D48       -0.07212  -0.00019   0.00000  -0.00597  -0.00597  -0.07809
   D49        2.99236   0.00001   0.00000  -0.00370  -0.00369   2.98867
   D50        3.08287  -0.00034   0.00000  -0.00532  -0.00532   3.07755
   D51       -0.13583  -0.00014   0.00000  -0.00305  -0.00305  -0.13888
   D52        0.35712  -0.00031   0.00000  -0.00195  -0.00194   0.35517
   D53       -1.64352  -0.00008   0.00000  -0.00000  -0.00001  -1.64352
   D54        2.53051  -0.00012   0.00000  -0.00258  -0.00257   2.52793
   D55       -2.95409  -0.00008   0.00000   0.00946   0.00947  -2.94462
   D56        1.32845   0.00016   0.00000   0.01141   0.01141   1.33986
   D57       -0.78071   0.00011   0.00000   0.00883   0.00884  -0.77187
   D58       -0.19403   0.00031   0.00000   0.00476   0.00476  -0.18927
   D59        3.12140   0.00005   0.00000  -0.00694  -0.00693   3.11447
   D60        3.02554   0.00011   0.00000   0.00241   0.00241   3.02795
   D61        0.05779  -0.00015   0.00000  -0.00929  -0.00928   0.04851
   D62        0.35692  -0.00031   0.00000  -0.00177  -0.00177   0.35515
   D63       -1.64389  -0.00007   0.00000   0.00034   0.00034  -1.64355
   D64        2.53024  -0.00012   0.00000  -0.00233  -0.00233   2.52791
   D65       -2.95410  -0.00008   0.00000   0.00946   0.00947  -2.94463
   D66        1.32828   0.00016   0.00000   0.01157   0.01157   1.33985
   D67       -0.78078   0.00011   0.00000   0.00890   0.00891  -0.77188
         Item               Value     Threshold  Converged?
 Maximum Force            0.002237     0.000450     NO 
 RMS     Force            0.000585     0.000300     NO 
 Maximum Displacement     0.020839     0.001800     NO 
 RMS     Displacement     0.007986     0.001200     NO 
 Predicted change in Energy=-3.586642D-05
 GradGradGradGradGradGradGradGradGradGradGradGradGradGradGradGradGradGrad

                          Input orientation:                          
 ---------------------------------------------------------------------
 Center     Atomic      Atomic             Coordinates (Angstroms)
 Number     Number       Type             X           Y           Z
 ---------------------------------------------------------------------
      1          6           0       -1.360404   -1.172937    0.663634
      2          6           0       -0.721955   -0.114529    1.361442
      3          6           0       -0.791848    1.055599    0.562430
      4          6           0        0.791859    1.055547   -0.562522
      5          6           0        0.721970   -0.114664   -1.361412
      6          6           0       -1.916797   -0.702885   -0.493735
      7          6           0        1.360459   -1.172988   -0.663508
      8          6           0        1.916872   -0.702807    0.493797
      9          6           0        1.880122    0.800112    0.473028
     10          6           0       -1.880096    0.800037   -0.473105
     11          1           0       -1.339755   -2.210455    0.972066
     12          1           0       -0.251684   -0.194456    2.329646
     13          1           0       -0.690906    2.039646    1.007475
     14          1           0        0.690896    2.039547   -1.007666
     15          1           0        0.251705   -0.194693   -2.329610
     16          1           0       -2.444695   -1.288788   -1.233299
     17          1           0        1.339828   -2.210538   -0.971836
     18          1           0        2.444801   -1.288625    1.233407
     19          1           0        2.834832    1.183204    0.081718
     20          1           0        1.711512    1.274197    1.440941
     21          1           0       -2.834820    1.183134   -0.081833
     22          1           0       -1.711495    1.274040   -1.441060
 ---------------------------------------------------------------------
                    Distance matrix (angstroms):
                    1          2          3          4          5
     1  C    0.000000
     2  C    1.419429   0.000000
     3  C    2.302144   1.418628   0.000000
     4  C    3.331942   2.713365   1.942587   0.000000
     5  C    3.091445   3.082022   2.713361   1.418628   0.000000
     6  C    1.367489   2.283745   2.339499   3.230114   2.839359
     7  C    3.027276   3.091473   3.331958   2.302145   1.419432
     8  C    3.315178   2.839417   3.230150   2.339503   2.283747
     9  C    3.798718   2.897698   2.685645   1.523787   2.354421
    10  C    2.335568   2.354418   1.523787   2.685633   2.897674
    11  H    1.082591   2.219504   3.336932   4.191123   3.753421
    12  H    2.227618   1.079334   2.231024   3.319055   3.818151
    13  H    3.299567   2.183284   1.084714   2.373170   3.499843
    14  H    4.161866   3.499839   2.373160   1.084713   2.183284
    15  H    3.537706   3.818155   3.319055   2.231024   1.079333
    16  H    2.188027   3.328573   3.384182   4.052300   3.379756
    17  H    3.323045   3.753450   4.191140   3.336933   2.219505
    18  H    3.849365   3.379828   4.052344   3.384187   3.328576
    19  H    4.846651   3.996566   3.660625   2.145945   2.869019
    20  H    4.003665   2.802970   2.662025   2.215272   3.280443
    21  H    2.877619   2.869002   2.145943   3.660620   3.996543
    22  H    3.246644   3.280447   2.215273   2.662020   2.802962
                    6          7          8          9         10
     6  C    0.000000
     7  C    3.315151   0.000000
     8  C    3.958818   1.367486   0.000000
     9  C    4.196453   2.335570   1.503512   0.000000
    10  C    1.503511   3.798720   4.196475   3.877422   0.000000
    11  H    2.180440   3.323040   3.620409   4.436233   3.382832
    12  H    3.317014   3.537725   2.886416   2.996797   3.390598
    13  H    3.358261   4.161887   3.819087   2.903836   2.267801
    14  H    3.819047   3.299567   3.358261   2.267799   2.903815
    15  H    2.886364   2.227620   3.317014   3.390598   2.996777
    16  H    1.081163   3.849321   4.727526   5.096969   2.293438
    17  H    3.620387   1.082590   2.180438   3.382833   4.436237
    18  H    4.727542   2.188025   1.081164   2.293438   5.097002
    19  H    5.144556   2.877634   2.137638   1.100615   4.762897
    20  H    4.562504   3.246638   2.201772   1.090890   4.097321
    21  H    2.137638   4.846651   5.144580   4.762904   1.100616
    22  H    2.201773   4.003678   4.562526   4.097322   1.090890
                   11         12         13         14         15
    11  H    0.000000
    12  H    2.662926   0.000000
    13  H    4.299491   2.632920   0.000000
    14  H    5.109345   4.125152   2.443393   0.000000
    15  H    4.182954   4.686370   4.125157   2.632917   0.000000
    16  H    2.633249   4.324516   4.378963   4.578281   3.109585
    17  H    3.310425   4.182974   5.109366   4.299491   2.662929
    18  H    3.903964   3.109658   4.578329   4.378964   4.324517
    19  H    5.453147   4.059274   3.744509   2.552752   3.792841
    20  H    4.655413   2.607849   2.558401   2.760995   4.301828
    21  H    3.855175   3.792833   2.552757   3.744500   4.059254
    22  H    4.254771   4.301831   2.760992   2.558381   2.607845
                   16         17         18         19         20
    16  H    0.000000
    17  H    3.903921   0.000000
    18  H    5.476478   2.633246   0.000000
    19  H    5.976071   3.855191   2.754714   0.000000
    20  H    5.567271   4.254764   2.673731   1.765676   0.000000
    21  H    2.754717   5.453145   5.976106   5.672010   4.795442
    22  H    2.673730   4.655430   5.567300   4.795434   4.474696
                   21         22
    21  H    0.000000
    22  H    1.765678   0.000000
 Stoichiometry    C10H12
 Framework group  C1[X(C10H12)]
 Deg. of freedom    60
 Full point group                 C1      NOp   1
 Largest Abelian subgroup         C1      NOp   1
 Largest concise Abelian subgroup C1      NOp   1
                         Standard orientation:                         
 ---------------------------------------------------------------------
 Center     Atomic      Atomic             Coordinates (Angstroms)
 Number     Number       Type             X           Y           Z
 ---------------------------------------------------------------------
      1          6           0       -1.358371    1.172801   -0.667792
      2          6           0       -0.717766    0.114417   -1.363658
      3          6           0       -0.790122   -1.055735   -0.564901
      4          6           0        0.790104   -1.055713    0.564935
      5          6           0        0.717745    0.114474    1.363642
      6          6           0       -1.918333    0.702712    0.487839
      7          6           0        1.358382    1.172821    0.667744
      8          6           0        1.918367    0.702678   -0.487851
      9          6           0        1.881558   -0.800242   -0.467241
     10          6           0       -1.881563   -0.800209    0.467276
     11          1           0       -1.336772    2.210330   -0.976128
     12          1           0       -0.244508    0.194375   -2.330403
     13          1           0       -0.687803   -2.039769   -1.009662
     14          1           0        0.687770   -2.039727    1.009736
     15          1           0        0.244492    0.194472    2.330385
     16          1           0       -2.448515    1.288591    1.225786
     17          1           0        1.336795    2.210361    0.976039
     18          1           0        2.448576    1.288519   -1.225809
     19          1           0        2.835056   -1.183343   -0.072997
     20          1           0        1.715939   -1.274299   -1.435684
     21          1           0       -2.835073   -1.183297    0.073047
     22          1           0       -1.715951   -1.274241    1.435732
 ---------------------------------------------------------------------
 Rotational constants (GHZ):           2.3964809           1.3303867           1.2664704
 Standard basis: 6-311G(d,p) (5D, 7F)
 There are   262 symmetry adapted cartesian basis functions of A   symmetry.
 There are   252 symmetry adapted basis functions of A   symmetry.
   252 basis functions,   416 primitive gaussians,   262 cartesian basis functions
    36 alpha electrons       36 beta electrons
       nuclear repulsion energy       521.7702007128 Hartrees.
 NAtoms=   22 NActive=   22 NUniq=   22 SFac= 1.00D+00 NAtFMM=   60 NAOKFM=F Big=F
 Integral buffers will be    131072 words long.
 Raffenetti 2 integral format.
 Two-electron integral symmetry is turned on.
 Nuclear repulsion after empirical dispersion term =      521.7246636690 Hartrees.
 Force inversion solution in PCM.
 ------------------------------------------------------------------------------
 Polarizable Continuum Model (PCM)
 =================================
 Model                : PCM.
 Atomic radii         : UFF (Universal Force Field).
 Polarization charges : Total charges.
 Charge compensation  : None.
 Solution method      : Matrix inversion.
 Cavity type          : Scaled VdW (van der Waals Surface) (Alpha=1.100).
 Cavity algorithm     : GePol (No added spheres)
                        Default sphere list used, NSphG=   22.
                        Lebedev-Laikov grids with approx.  5.0 points / Ang**2.
                        Smoothing algorithm: York/Karplus (Gamma=1.0000).
                        Polarization charges: spherical gaussians, with
                                              point-specific exponents (IZeta= 3).
                        Self-potential: point-specific (ISelfS= 7).
                        Self-field    : sphere-specific E.n sum rule (ISelfD= 2).
 1st derivatives      : Analytical E(r).r(x)/FMM algorithm (CHGder, D1EAlg=3).
                        Cavity 1st derivative terms included.
 2nd derivatives      : Analytical E(r).r(xy)/FMM algorithm (CHGder, D2EAlg=3).
                        Cavity 2nd derivative terms included.
 Solvent              : Cis-Decalin, Eps=   2.213900 Eps(inf)=   2.193361
 ------------------------------------------------------------------------------
 One-electron integrals computed using PRISM.
 NBasis=   252 RedAO= T EigKep=  5.28D-04  NBF=   252
 NBsUse=   252 1.00D-06 EigRej= -1.00D+00 NBFU=   252
 Initial guess from the checkpoint file:  "01_02.chk"
 B after Tr=     0.000000   -0.000000    0.000000
         Rot=    0.999999   -0.000014    0.001326   -0.000013 Ang=  -0.15 deg.
 ExpMin= 1.03D-01 ExpMax= 4.56D+03 ExpMxC= 6.82D+02 IAcc=2 IRadAn=         4 AccDes= 0.00D+00
 Harris functional with IExCor=  402 and IRadAn=       4 diagonalized for initial guess.
 HarFok:  IExCor=  402 AccDes= 0.00D+00 IRadAn=         4 IDoV= 1 UseB2=F ITyADJ=14
 ICtDFT=  3500011 ScaDFX=  1.000000  1.000000  1.000000  1.000000
 FoFCou: FMM=F IPFlag=           0 FMFlag=      100000 FMFlg1=           0
         NFxFlg=           0 DoJE=T BraDBF=F KetDBF=T FulRan=T
         wScrn=  0.000000 ICntrl=       500 IOpCl=  0 I1Cent=   200000004 NGrid=           0
         NMat0=    1 NMatS0=      1 NMatT0=    0 NMatD0=    1 NMtDS0=    0 NMtDT0=    0
 Petite list used in FoFCou.
 Requested convergence on RMS density matrix=1.00D-08 within 128 cycles.
 Requested convergence on MAX density matrix=1.00D-06.
 Requested convergence on             energy=1.00D-06.
 No special actions if energy rises.
 Inv3:  Mode=1 IEnd=     7059468.
 Iteration    1 A*A^-1 deviation from unit magnitude is 4.88D-15 for    315.
 Iteration    1 A*A^-1 deviation from orthogonality  is 2.44D-15 for   1471    673.
 Iteration    1 A^-1*A deviation from unit magnitude is 6.00D-15 for    315.
 Iteration    1 A^-1*A deviation from orthogonality  is 1.49D-15 for   1339    251.
 Error on total polarization charges =  0.00622
 SCF Done:  E(RB3LYP) =  -388.319300088     A.U. after   10 cycles
            NFock= 10  Conv=0.55D-08     -V/T= 2.0047
 DoSCS=F DFT=T ScalE2(SS,OS)=  1.000000  1.000000
 Range of M.O.s used for correlation:     1   252
 NBasis=   252 NAE=    36 NBE=    36 NFC=     0 NFV=     0
 NROrb=    252 NOA=    36 NOB=    36 NVA=   216 NVB=   216
 Symmetrizing basis deriv contribution to polar:
 IMax=3 JMax=2 DiffMx= 0.00D+00
 G2DrvN: will do    23 centers at a time, making    1 passes.
 Calling FoFCou, ICntrl=  3107 FMM=F I1Cent=   0 AccDes= 0.00D+00.
 NEqPCM:  Using equilibrium solvation (IEInf=0, Eps=   2.2139, EpsInf=   2.1934)
 G2PCM: DoFxE=T DoFxN=T DoGrad=T DoDP/DQ/DG/TGxP=FFFF NFrqRd=   0 IEInf=0 SqF1=F DoCFld=F IF1Alg=4.
 End of G2Drv F.D. properties file   721 does not exist.
 End of G2Drv F.D. properties file   722 does not exist.
 End of G2Drv F.D. properties file   788 does not exist.
          IDoAtm=1111111111111111111111
 NEqPCM:  Using equilibrium solvation (IEInf=0, Eps=   2.2139, EpsInf=   2.1934)
          Differentiating once with respect to electric field.
                with respect to dipole field.
          Differentiating once with respect to nuclear coordinates.
 Keep R1 ints in memory in canonical form, NReq=629995426.
          There are    69 degrees of freedom in the 1st order CPHF.  IDoFFX=6 NUNeed=     3.
     66 vectors produced by pass  0 Test12= 1.13D-14 1.45D-09 XBig12= 3.04D+02 1.55D+01.
 AX will form    66 AO Fock derivatives at one time.
     66 vectors produced by pass  1 Test12= 1.13D-14 1.45D-09 XBig12= 4.95D+01 1.26D+00.
     66 vectors produced by pass  2 Test12= 1.13D-14 1.45D-09 XBig12= 4.48D-01 1.15D-01.
     66 vectors produced by pass  3 Test12= 1.13D-14 1.45D-09 XBig12= 9.79D-04 5.65D-03.
     66 vectors produced by pass  4 Test12= 1.13D-14 1.45D-09 XBig12= 1.75D-06 2.30D-04.
     48 vectors produced by pass  5 Test12= 1.13D-14 1.45D-09 XBig12= 1.86D-09 5.06D-06.
      6 vectors produced by pass  6 Test12= 1.13D-14 1.45D-09 XBig12= 1.89D-12 2.28D-07.
      3 vectors produced by pass  7 Test12= 1.13D-14 1.45D-09 XBig12= 1.82D-15 5.46D-09.
 InvSVY:  IOpt=1 It=  1 EMax= 7.11D-15
 Solved reduced A of dimension   387 with    69 vectors.
 Isotropic polarizability for W=    0.000000      133.47 Bohr**3.
 End of Minotr F.D. properties file   721 does not exist.
 End of Minotr F.D. properties file   722 does not exist.
 End of Minotr F.D. properties file   788 does not exist.
 D2PCM: PCM CHGder 2nd derivatives, FixD1E=F FixD2E=F DoIter=F DoCFld=F I1PDM=0
 Calling FoFJK, ICntrl=    100127 FMM=F ISym2X=0 I1Cent= 0 IOpClX= 0 NMat=1 NMatS=1 NMatT=0.
 ***** Axes restored to original set *****
 -------------------------------------------------------------------
 Center     Atomic                   Forces (Hartrees/Bohr)
 Number     Number              X              Y              Z
 -------------------------------------------------------------------
      1        6          -0.000005237   -0.000022009    0.000008320
      2        6           0.000001721   -0.000006198    0.000022926
      3        6          -0.000103482    0.000015881    0.000068082
      4        6           0.000102588    0.000015502   -0.000067457
      5        6          -0.000001134   -0.000005750   -0.000023011
      6        6          -0.000023618    0.000000926   -0.000003042
      7        6           0.000005743   -0.000021927   -0.000008209
      8        6           0.000023354    0.000000772    0.000003333
      9        6           0.000003527    0.000004898    0.000005338
     10        6          -0.000003366    0.000005190   -0.000005558
     11        1          -0.000000147   -0.000004992    0.000003043
     12        1           0.000004918   -0.000002183    0.000006063
     13        1          -0.000016315    0.000010874    0.000019233
     14        1           0.000016594    0.000011084   -0.000019531
     15        1          -0.000005156   -0.000002287   -0.000006116
     16        1          -0.000000595   -0.000004246   -0.000005994
     17        1           0.000000200   -0.000005254   -0.000003141
     18        1           0.000000184   -0.000003973    0.000005796
     19        1           0.000004719    0.000003842   -0.000000285
     20        1          -0.000000322    0.000003054    0.000007016
     21        1          -0.000004543    0.000003762    0.000000121
     22        1           0.000000368    0.000003034   -0.000006929
 -------------------------------------------------------------------
 Cartesian Forces:  Max     0.000103482 RMS     0.000023515
 FormGI is forming the generalized inverse of G from B-inverse, IUseBI=4.

 GradGradGradGradGradGradGradGradGradGradGradGradGradGradGradGradGradGrad
 Berny optimization.
 Internal  Forces:  Max     0.000182947 RMS     0.000017893
 Search for a saddle point.
 Step number   2 out of a maximum of  132
 All quantities printed in internal units (Hartrees-Bohrs-Radians)
 Swapping is turned off.
 Second derivative matrix not updated -- analytic derivatives used.
 ITU=  0  0
     Eigenvalues ---   -0.02660   0.00300   0.00886   0.00971   0.01019
     Eigenvalues ---    0.01102   0.01172   0.01451   0.01849   0.01953
     Eigenvalues ---    0.02458   0.03274   0.03307   0.03813   0.03944
     Eigenvalues ---    0.04322   0.04331   0.04678   0.04678   0.05478
     Eigenvalues ---    0.05952   0.06301   0.06312   0.07260   0.07666
     Eigenvalues ---    0.09285   0.09400   0.10400   0.10434   0.10673
     Eigenvalues ---    0.10709   0.12060   0.13929   0.17759   0.18657
     Eigenvalues ---    0.20634   0.21858   0.22903   0.25096   0.25521
     Eigenvalues ---    0.27512   0.28249   0.31715   0.31739   0.33836
     Eigenvalues ---    0.33841   0.34644   0.35161   0.35619   0.35991
     Eigenvalues ---    0.36038   0.36081   0.36150   0.36652   0.36851
     Eigenvalues ---    0.37248   0.37860   0.38479   0.47629   0.48119
 Eigenvectors required to have negative eigenvalues:
                          R6        R9        R4        D52       D62
   1                   -0.78935   0.12674   0.12674   0.12509   0.12508
                          D37       D11       D47       D32       D24
   1                   -0.11574  -0.11573   0.11511   0.11511  -0.11215
 RFO step:  Lambda0=5.795708516D-07 Lambda=-2.86423011D-07.
 Linear search not attempted -- option 19 set.
[...]

 Cycle   9  Pass 1  IDiag  1:
 RMSU=  8.68D-07    CP:  9.71D-01  1.02D+00  9.12D-01  7.53D-01  7.94D-01
                    CP:  1.10D+00  1.16D+00  1.03D+00
 E= -388.134568400150     Delta-E=       -0.000000034128 Rises=F Damp=F
 DIIS: error= 3.78D-06 at cycle   9 NSaved=   9.
 NSaved= 9 IEnMin= 9 EnMin= -388.134568400150     IErMin= 9 ErrMin= 3.78D-06
 ErrMax= 3.78D-06  0.00D+00 EMaxC= 1.00D-01 BMatC= 1.74D-09 BMatP= 1.50D-08
 IDIUse=1 WtCom= 1.00D+00 WtEn= 0.00D+00
 Coeff-Com: -0.477D-04 0.131D-03 0.815D-03 0.125D-02-0.108D-02-0.442D-01
 Coeff-Com: -0.677D-01 0.141D+00 0.970D+00
 Coeff:     -0.477D-04 0.131D-03 0.815D-03 0.125D-02-0.108D-02-0.442D-01
 Coeff:     -0.677D-01 0.141D+00 0.970D+00
 Gap=     0.222 Goal=   None    Shift=    0.000
 RMSDP=8.54D-07 MaxDP=1.25D-05 DE=-3.41D-08 OVMax= 6.91D-05

 Cycle  10  Pass 1  IDiag  1:
 RMSU=  3.19D-07    CP:  9.71D-01  1.02D+00  9.12D-01  7.53D-01  7.96D-01
                    CP:  1.11D+00  1.21D+00  1.22D+00  1.28D+00
 E= -388.134568406571     Delta-E=       -0.000000006421 Rises=F Damp=F
 DIIS: error= 1.15D-06 at cycle  10 NSaved=  10.
 NSaved=10 IEnMin=10 EnMin= -388.134568406571     IErMin=10 ErrMin= 1.15D-06
 ErrMax= 1.15D-06  0.00D+00 EMaxC= 1.00D-01 BMatC= 4.37D-10 BMatP= 1.74D-09
 IDIUse=1 WtCom= 1.00D+00 WtEn= 0.00D+00
 Coeff-Com: -0.313D-04 0.637D-04 0.793D-03 0.246D-02 0.334D-02-0.205D-01
 Coeff-Com: -0.642D-01-0.535D-01 0.426D+00 0.706D+00
 Coeff:     -0.313D-04 0.637D-04 0.793D-03 0.246D-02 0.334D-02-0.205D-01
 Coeff:     -0.642D-01-0.535D-01 0.426D+00 0.706D+00
 Gap=     0.222 Goal=   None    Shift=    0.000
 RMSDP=2.54D-07 MaxDP=3.51D-06 DE=-6.42D-09 OVMax= 1.70D-05

 Cycle  11  Pass 1  IDiag  1:
 RMSU=  1.00D-07    CP:  9.71D-01  1.02D+00  9.11D-01  7.53D-01  7.97D-01
                    CP:  1.11D+00  1.23D+00  1.26D+00  1.42D+00  9.48D-01
 E= -388.134568407347     Delta-E=       -0.000000000776 Rises=F Damp=F
 DIIS: error= 2.71D-07 at cycle  11 NSaved=  11.
 NSaved=11 IEnMin=11 EnMin= -388.134568407347     IErMin=11 ErrMin= 2.71D-07
 ErrMax= 2.71D-07  0.00D+00 EMaxC= 1.00D-01 BMatC= 1.10D-11 BMatP= 4.37D-10
 IDIUse=1 WtCom= 1.00D+00 WtEn= 0.00D+00
 Coeff-Com:  0.264D-05-0.741D-05-0.173D-04 0.855D-04 0.322D-03 0.223D-02
 Coeff-Com:  0.195D-03-0.224D-01-0.429D-01 0.587D-01 0.100D+01
 Coeff:      0.264D-05-0.741D-05-0.173D-04 0.855D-04 0.322D-03 0.223D-02
 Coeff:      0.195D-03-0.224D-01-0.429D-01 0.587D-01 0.100D+01
 Gap=     0.222 Goal=   None    Shift=    0.000
 RMSDP=7.25D-08 MaxDP=9.26D-07 DE=-7.76D-10 OVMax= 5.55D-06

 Cycle  12  Pass 1  IDiag  1:
 RMSU=  2.17D-08    CP:  9.71D-01  1.02D+00  9.11D-01  7.53D-01  7.97D-01
                    CP:  1.11D+00  1.23D+00  1.27D+00  1.46D+00  1.05D+00
                    CP:  1.13D+00
 E= -388.134568407380     Delta-E=       -0.000000000033 Rises=F Damp=F
 DIIS: error= 7.63D-08 at cycle  12 NSaved=  12.
 NSaved=12 IEnMin=12 EnMin= -388.134568407380     IErMin=12 ErrMin= 7.63D-08
 ErrMax= 7.63D-08  0.00D+00 EMaxC= 1.00D-01 BMatC= 2.02D-12 BMatP= 1.10D-11
 IDIUse=1 WtCom= 1.00D+00 WtEn= 0.00D+00
 Coeff-Com:  0.242D-05-0.576D-05-0.469D-04-0.831D-04-0.375D-04 0.192D-02
 Coeff-Com:  0.324D-02-0.678D-02-0.354D-01-0.156D-01 0.391D+00 0.662D+00
 Coeff:      0.242D-05-0.576D-05-0.469D-04-0.831D-04-0.375D-04 0.192D-02
 Coeff:      0.324D-02-0.678D-02-0.354D-01-0.156D-01 0.391D+00 0.662D+00
 Gap=     0.222 Goal=   None    Shift=    0.000
 RMSDP=1.18D-08 MaxDP=1.75D-07 DE=-3.26D-11 OVMax= 5.84D-07

 Cycle  13  Pass 1  IDiag  1:
 RMSU=  7.37D-09    CP:  9.71D-01  1.02D+00  9.11D-01  7.53D-01  7.97D-01
                    CP:  1.11D+00  1.23D+00  1.27D+00  1.47D+00  1.05D+00
                    CP:  1.18D+00  9.08D-01
 E= -388.134568407388     Delta-E=       -0.000000000008 Rises=F Damp=F
 DIIS: error= 1.73D-08 at cycle  13 NSaved=  13.
 NSaved=13 IEnMin=13 EnMin= -388.134568407388     IErMin=13 ErrMin= 1.73D-08
 ErrMax= 1.73D-08  0.00D+00 EMaxC= 1.00D-01 BMatC= 1.15D-13 BMatP= 2.02D-12
 IDIUse=1 WtCom= 1.00D+00 WtEn= 0.00D+00
 Coeff-Com: -0.105D-06 0.275D-06-0.587D-05-0.188D-04-0.397D-04 0.101D-03
 Coeff-Com:  0.539D-03 0.101D-02 0.106D-04-0.123D-01-0.480D-01 0.113D+00
 Coeff-Com:  0.946D+00
 Coeff:     -0.105D-06 0.275D-06-0.587D-05-0.188D-04-0.397D-04 0.101D-03
 Coeff:      0.539D-03 0.101D-02 0.106D-04-0.123D-01-0.480D-01 0.113D+00
 Coeff:      0.946D+00
 Gap=     0.222 Goal=   None    Shift=    0.000
 RMSDP=4.43D-09 MaxDP=5.25D-08 DE=-8.19D-12 OVMax= 2.45D-07

 Error on total polarization charges =  0.02201
 SCF Done:  E(RM052X) =  -388.134568407     A.U. after   13 cycles
            NFock= 13  Conv=0.44D-08     -V/T= 2.0097
 KE= 3.844048335215D+02 PE=-1.941854111375D+03 EE= 6.475511193978D+02
 SMD-CDS (non-electrostatic) energy       (kcal/mol) =      -4.15
 (included in total energy above)
 Leave Link  502 at Wed Jul 23 23:16:48 2025, MaxMem= 87241523200 cpu:             629.6 elap:               6.0
 (Enter /home/hongchang/data/software/Gaussian/g16/l601.exe)
 Copying SCF densities to generalized density rwf, IOpCl= 0 IROHF=0.

 **********************************************************************

            Population analysis using the SCF density.

 **********************************************************************

 Orbital symmetries:
       Occupied  (A) (A) (A) (A) (A) (A) (A) (A) (A) (A) (A) (A)
                 (A) (A) (A) (A) (A) (A) (A) (A) (A) (A) (A) (A)
                 (A) (A) (A) (A) (A) (A) (A) (A) (A) (A) (A) (A)
       Virtual   (A) (A) (A) (A) (A) (A) (A) (A) (A) (A) (A) (A)
                 (A) (A) (A) (A) (A) (A) (A) (A) (A) (A) (A) (A)
                 (A) (A) (A) (A) (A) (A) (A) (A) (A) (A) (A) (A)
                 (A) (A) (A) (A) (A) (A) (A) (A) (A) (A) (A) (A)
                 (A) (A) (A) (A) (A) (A) (A) (A) (A) (A) (A) (A)
                 (A) (A) (A) (A) (A) (A) (A) (A) (A) (A) (A) (A)
                 (A) (A) (A) (A) (A) (A) (A) (A) (A) (A) (A) (A)
                 (A) (A) (A) (A) (A) (A) (A) (A) (A) (A) (A) (A)
                 (A) (A) (A) (A) (A) (A) (A) (A) (A) (A) (A) (A)
                 (A) (A) (A) (A) (A) (A) (A) (A) (A) (A) (A) (A)
                 (A) (A) (A) (A) (A) (A) (A) (A) (A) (A) (A) (A)
                 (A) (A) (A) (A) (A) (A)
 The electronic state is 1-A.
 Alpha  occ. eigenvalues --  -10.57784 -10.57778 -10.56528 -10.56528 -10.56468
 Alpha  occ. eigenvalues --  -10.56468 -10.56013 -10.56011 -10.55942 -10.55941
 Alpha  occ. eigenvalues --   -0.97357  -0.94117  -0.81321  -0.79955  -0.78205
 Alpha  occ. eigenvalues --   -0.77368  -0.63858  -0.62825  -0.60790  -0.58949
 Alpha  occ. eigenvalues --   -0.58901  -0.57132  -0.52211  -0.48649  -0.45192
 Alpha  occ. eigenvalues --   -0.43795  -0.43080  -0.42632  -0.42005  -0.41601
 Alpha  occ. eigenvalues --   -0.41177  -0.39522  -0.37235  -0.30860  -0.30513
 Alpha  occ. eigenvalues --   -0.21359
 Alpha virt. eigenvalues --    0.00872   0.09115   0.09384   0.15624   0.18525
 Alpha virt. eigenvalues --    0.19696   0.20554   0.21074   0.21846   0.22516
 Alpha virt. eigenvalues --    0.23387   0.23904   0.24626   0.24956   0.26444
 Alpha virt. eigenvalues --    0.27151   0.28919   0.29268   0.29815   0.30177
 Alpha virt. eigenvalues --    0.35660   0.38575   0.42331   0.42838   0.47594
 Alpha virt. eigenvalues --    0.49261   0.55137   0.57094   0.59530   0.61845
 Alpha virt. eigenvalues --    0.62364   0.63826   0.64471   0.65384   0.65887
 Alpha virt. eigenvalues --    0.66644   0.69207   0.69331   0.70924   0.72752
 Alpha virt. eigenvalues --    0.74985   0.77023   0.78842   0.79184   0.80477
 Alpha virt. eigenvalues --    0.85556   0.86865   0.87340   0.91987   0.92504
 Alpha virt. eigenvalues --    0.93633   0.93772   0.94847   0.95010   0.95805
 Alpha virt. eigenvalues --    0.96694   0.96999   0.99518   1.01227   1.02120
 Alpha virt. eigenvalues --    1.02218   1.04265   1.04975   1.07681   1.07895
 Alpha virt. eigenvalues --    1.14678   1.20398   1.22994   1.24574   1.28016
 Alpha virt. eigenvalues --    1.33281   1.36046   1.40021   1.43670   1.45902
 Alpha virt. eigenvalues --    1.49879   1.50373   1.54189   1.54989   1.60184
 Alpha virt. eigenvalues --    1.60755   1.62925   1.67074   1.71428   1.74031
 Alpha virt. eigenvalues --    1.78738   1.79768   1.90982   1.93351   1.96612
 Alpha virt. eigenvalues --    1.97368   2.03946   2.04149   2.07378   2.11135
 Alpha virt. eigenvalues --    2.12232   2.14698   2.17179   2.19270   2.19427
 Alpha virt. eigenvalues --    2.20696   2.23725   2.24873   2.29183   2.33644
 Alpha virt. eigenvalues --    2.35194   2.37147   2.39551   2.45233   2.47041
 Alpha virt. eigenvalues --    2.50375   2.51767   2.52703   2.55907   2.56984
 Alpha virt. eigenvalues --    2.61252   2.69362   2.71234   2.72886   2.73510
 Alpha virt. eigenvalues --    2.74466   2.76319   2.79673   2.79977   3.00316
 Alpha virt. eigenvalues --    3.01503   3.04852   3.06273   4.14477   4.23991
 Alpha virt. eigenvalues --    4.25902   4.41486   4.43861   4.48251   4.55257
 Alpha virt. eigenvalues --    4.68364   4.69590   4.72485
          Condensed to atoms (all electrons):
               1          2          3          4          5          6
     1  C    4.840039   0.503128  -0.049037  -0.010087   0.009903   0.605004
     2  C    0.503128   5.034956   0.524622  -0.040083  -0.051290  -0.062725
     3  C   -0.049037   0.524622   5.150719   0.122539  -0.040084  -0.082838
     4  C   -0.010087  -0.040083   0.122539   5.150718   0.524623  -0.012036
     5  C    0.009903  -0.051290  -0.040084   0.524623   5.034959   0.044625
     6  C    0.605004  -0.062725  -0.082838  -0.012036   0.044625   5.081578
     7  C   -0.009918   0.009903  -0.010086  -0.049036   0.503122  -0.007061
     8  C   -0.007060   0.044620  -0.012035  -0.082838  -0.062724  -0.002321
     9  C    0.000005  -0.011541  -0.026744   0.377542  -0.079213   0.000300
    10  C   -0.065648  -0.079213   0.377541  -0.026745  -0.011542   0.373823
    11  H    0.376736  -0.046712   0.005849  -0.000046   0.000221  -0.048780
    12  H   -0.038789   0.375674  -0.045078  -0.000678  -0.000025   0.005459
    13  H    0.005653  -0.038862   0.377163  -0.020366   0.002515   0.004846
    14  H    0.000028   0.002515  -0.020367   0.377163  -0.038862   0.000096
    15  H   -0.000181  -0.000025  -0.000678  -0.045078   0.375674   0.001154
    16  H   -0.037163   0.005816   0.004454   0.000172  -0.002048   0.376429
    17  H    0.000422   0.000221  -0.000046   0.005849  -0.046712  -0.000097
    18  H    0.000078  -0.002048   0.000172   0.004454   0.005816   0.000015
    19  H   -0.000061   0.001699   0.003670  -0.028240  -0.000604  -0.000051
    20  H    0.000445  -0.002056  -0.002796  -0.038625   0.005709   0.000020
    21  H   -0.003213  -0.000604  -0.028240   0.003670   0.001699  -0.033845
    22  H    0.004068   0.005709  -0.038625  -0.002796  -0.002056  -0.032113
               7          8          9         10         11         12
     1  C   -0.009918  -0.007060   0.000005  -0.065648   0.376736  -0.038789
     2  C    0.009903   0.044620  -0.011541  -0.079213  -0.046712   0.375674
     3  C   -0.010086  -0.012035  -0.026744   0.377541   0.005849  -0.045078
     4  C   -0.049036  -0.082838   0.377542  -0.026745  -0.000046  -0.000678
     5  C    0.503122  -0.062724  -0.079213  -0.011542   0.000221  -0.000025
     6  C   -0.007061  -0.002321   0.000300   0.373823  -0.048780   0.005459
     7  C    4.840037   0.605011  -0.065648   0.000005   0.000422  -0.000181
     8  C    0.605011   5.081572   0.373823   0.000300  -0.000097   0.001154
     9  C   -0.065648   0.373823   5.109619   0.002993  -0.000010   0.000208
    10  C    0.000005   0.000300   0.002993   5.109621   0.006627   0.005512
    11  H    0.000422  -0.000097  -0.000010   0.006627   0.539821  -0.002502
    12  H   -0.000181   0.001154   0.000208   0.005512  -0.002502   0.527942
    13  H    0.000028   0.000096  -0.003120  -0.037750  -0.000103  -0.002545
    14  H    0.005653   0.004846  -0.037750  -0.003121   0.000003  -0.000045
    15  H   -0.038789   0.005459   0.005512   0.000208  -0.000015  -0.000003
    16  H    0.000078   0.000015  -0.000002  -0.042406  -0.003130  -0.000118
    17  H    0.376736  -0.048780   0.006627  -0.000010   0.000102  -0.000015
    18  H   -0.037163   0.376428  -0.042406  -0.000002   0.000020   0.000039
    19  H   -0.003213  -0.033845   0.360890  -0.000073  -0.000001   0.000027
    20  H    0.004067  -0.032113   0.376264   0.000307   0.000003   0.000886
    21  H   -0.000061  -0.000051  -0.000073   0.360889  -0.000163  -0.000157
    22  H    0.000445   0.000020   0.000307   0.376264  -0.000101  -0.000109
              13         14         15         16         17         18
     1  C    0.005653   0.000028  -0.000181  -0.037163   0.000422   0.000078
     2  C   -0.038862   0.002515  -0.000025   0.005816   0.000221  -0.002048
     3  C    0.377163  -0.020367  -0.000678   0.004454  -0.000046   0.000172
     4  C   -0.020366   0.377163  -0.045078   0.000172   0.005849   0.004454
     5  C    0.002515  -0.038862   0.375674  -0.002048  -0.046712   0.005816
     6  C    0.004846   0.000096   0.001154   0.376429  -0.000097   0.000015
     7  C    0.000028   0.005653  -0.038789   0.000078   0.376736  -0.037163
     8  C    0.000096   0.004846   0.005459   0.000015  -0.048780   0.376428
     9  C   -0.003120  -0.037750   0.005512  -0.000002   0.006627  -0.042406
    10  C   -0.037750  -0.003121   0.000208  -0.042406  -0.000010  -0.000002
    11  H   -0.000103   0.000003  -0.000015  -0.003130   0.000102   0.000020
    12  H   -0.002545  -0.000045  -0.000003  -0.000118  -0.000015   0.000039
    13  H    0.532139  -0.002619  -0.000045  -0.000099   0.000003   0.000002
    14  H   -0.002619   0.532138  -0.002545   0.000002  -0.000103  -0.000099
    15  H   -0.000045  -0.002545   0.527941   0.000039  -0.002502  -0.000118
    16  H   -0.000099   0.000002   0.000039   0.525477   0.000020  -0.000000
    17  H    0.000003  -0.000103  -0.002502   0.000020   0.539821  -0.003130
    18  H    0.000002  -0.000099  -0.000118  -0.000000  -0.003130   0.525476
    19  H   -0.000066  -0.000777  -0.000157   0.000000  -0.000163   0.000514
    20  H    0.002083  -0.000292  -0.000109  -0.000000  -0.000101  -0.001053
    21  H   -0.000776  -0.000066   0.000027   0.000514  -0.000001   0.000000
    22  H   -0.000292   0.002083   0.000886  -0.001053   0.000003  -0.000000
              19         20         21         22
     1  C   -0.000061   0.000445  -0.003213   0.004068
     2  C    0.001699  -0.002056  -0.000604   0.005709
     3  C    0.003670  -0.002796  -0.028240  -0.038625
     4  C   -0.028240  -0.038625   0.003670  -0.002796
     5  C   -0.000604   0.005709   0.001699  -0.002056
     6  C   -0.000051   0.000020  -0.033845  -0.032113
     7  C   -0.003213   0.004067  -0.000061   0.000445
     8  C   -0.033845  -0.032113  -0.000051   0.000020
     9  C    0.360890   0.376264  -0.000073   0.000307
    10  C   -0.000073   0.000307   0.360889   0.376264
    11  H   -0.000001   0.000003  -0.000163  -0.000101
    12  H    0.000027   0.000886  -0.000157  -0.000109
    13  H   -0.000066   0.002083  -0.000776  -0.000292
    14  H   -0.000777  -0.000292  -0.000066   0.002083
    15  H   -0.000157  -0.000109   0.000027   0.000886
    16  H    0.000000  -0.000000   0.000514  -0.001053
    17  H   -0.000163  -0.000101  -0.000001   0.000003
    18  H    0.000514  -0.001053   0.000000  -0.000000
    19  H    0.538898  -0.030460   0.000000  -0.000008
    20  H   -0.030460   0.542979  -0.000008  -0.000005
    21  H    0.000000  -0.000008   0.538897  -0.030460
    22  H   -0.000008  -0.000005  -0.030460   0.542979
 Mulliken charges:
               1
     1  C   -0.124351
     2  C   -0.173706
     3  C   -0.210075
     4  C   -0.210074
     5  C   -0.173707
     6  C   -0.211482
     7  C   -0.124351
     8  C   -0.211481
     9  C   -0.347581
    10  C   -0.347580
    11  H    0.171856
    12  H    0.173344
    13  H    0.182116
    14  H    0.182116
    15  H    0.173345
    16  H    0.173002
    17  H    0.171856
    18  H    0.173003
    19  H    0.192021
    20  H    0.174855
    21  H    0.192021
    22  H    0.174854
 Sum of Mulliken charges =  -0.00000
 Mulliken charges with hydrogens summed into heavy atoms:
               1
     1  C    0.047505
     2  C   -0.000362
     3  C   -0.027959
     4  C   -0.027958
     5  C   -0.000362
     6  C   -0.038480
     7  C    0.047505
     8  C   -0.038478
     9  C    0.019294
    10  C    0.019295
 Electronic spatial extent (au):  <R**2>=           1169.6357
 Charge=             -0.0000 electrons
 Dipole moment (field-independent basis, Debye):
    X=              0.0000    Y=             -0.6274    Z=              0.0000  Tot=              0.6274
 Quadrupole moment (field-independent basis, Debye-Ang):
   XX=            -61.0996   YY=            -55.3432   ZZ=            -58.2875
   XY=             -0.0000   XZ=             -4.0183   YZ=             -0.0000
 Traceless Quadrupole moment (field-independent basis, Debye-Ang):
   XX=             -2.8562   YY=              2.9002   ZZ=             -0.0441
   XY=             -0.0000   XZ=             -4.0183   YZ=             -0.0000
 Octapole moment (field-independent basis, Debye-Ang**2):
  XXX=              0.0002  YYY=              2.4282  ZZZ=              0.0000  XYY=              0.0000
  XXY=             -2.3551  XXZ=             -0.0000  XZZ=              0.0000  YZZ=              1.2365
  YYZ=              0.0001  XYZ=             -1.0553
 Hexadecapole moment (field-independent basis, Debye-Ang**3):
 XXXX=           -869.6140 YYYY=           -374.2912 ZZZZ=           -332.6704 XXXY=              0.0000
 XXXZ=            -27.2240 YYYX=              0.0000 YYYZ=             -0.0001 ZZZX=            -17.1327
 ZZZY=             -0.0000 XXYY=           -201.1360 XXZZ=           -205.9911 YYZZ=           -117.6002
 XXYZ=             -0.0004 YYXZ=             -0.8784 ZZXY=             -0.0004
 N-N= 5.217635900486D+02 E-N=-1.941854110074D+03  KE= 3.844048335215D+02
 No NMR shielding tensors so no spin-rotation constants.
 Leave Link  601 at Wed Jul 23 23:16:50 2025, MaxMem= 87241523200 cpu:              36.9 elap:               0.4
 (Enter /home/hongchang/data/software/Gaussian/g16/l9999.exe)
 1\1\GINC-NODE02\SP\RM052X\6-31G(d)\C10H12\HONGCHANG\23-Jul-2025\0\\#p 
 m052x/6-31g* scrf(SMD,solvent=Cis-Decalin) geom=check\\01_02\\0,1\C,0,
 -1.3604040456,-1.172936516,0.6636339645\C,0,-0.7219551707,-0.114529185
 4,1.3614424359\C,0,-0.7918482477,1.0555985857,0.5624295946\C,0,0.79185
 91201,1.0555474269,-0.5625217596\C,0,0.7219704233,-0.114664125,-1.3614
 119354\C,0,-1.9167971123,-0.7028846186,-0.4937349854\C,0,1.3604591515,
 -1.1729878408,-0.6635076408\C,0,1.9168719074,-0.7028073001,0.493796763
 7\C,0,1.8801216942,0.8001118423,0.4730280694\C,0,-1.8800957378,0.80003
 70986,-0.4731049985\H,0,-1.3397548249,-2.2104554383,0.9720660548\H,0,-
 0.2516837308,-0.194456067,2.3296460166\H,0,-0.6909063864,2.0396464013,
 1.0074748418\H,0,0.6908958861,2.0395474775,-1.0076661983\H,0,0.2517052
 22,-0.1946931246,-2.3296095226\H,0,-2.4446953833,-1.2887877064,-1.2332
 986739\H,0,1.3398277808,-2.2105376871,-0.9718355896\H,0,2.4448012153,-
 1.2886247686,1.2334071793\H,0,2.8348315703,1.183204224,0.0817183255\H,
 0,1.7115116345,1.274197032,1.4409408938\H,0,-2.8348198881,1.1831339786
 ,-0.0818332279\H,0,-1.711495078,1.2740403108,-1.4410596077\\Version=ES
 64L-G16RevA.03\State=1-A\HF=-388.1345684\RMSD=4.433e-09\Dipole=0.00000
 06,0.2468382,-0.0000211\Quadrupole=-2.1419197,2.1562417,-0.0143219,0.0
 001137,2.9809699,-0.0000713\PG=C01 [X(C10H12)]\\@


 THE WISE MAN HAS THE POWER TO REASON AWAY
 WHAT A FOOL BELIEVES.
                     - DOOBIE BROTHERS
 Job cpu time:       0 days  0 hours 13 minutes  7.8 seconds.
 Elapsed time:       0 days  0 hours  0 minutes  7.7 seconds.
 File lengths (MBytes):  RWF=     71 Int=      0 D2E=      0 Chk=     67 Scr=      2
 Normal termination of Gaussian 16 at Wed Jul 23 23:16:51 2025.
