 Entering Gaussian System, Link 0=g16
 Initial command:
 /home/hongchang/software/g16/l1.exe "/home/hongchang/software/g16/scratch/Gau-70011.inp" -scrdir="/home/hongchang/software/g16/scratch/"
 Entering Link 1 = /home/hongchang/software/g16/l1.exe PID=     70012.
  
 Copyright (c) 1988,1990,1992,1993,1995,1998,2003,2009,2016,
            Gaussian, Inc.  All Rights Reserved.
  
 This is part of the Gaussian(R) 16 program.  It is based on
 the Gaussian(R) 09 system (copyright 2009, Gaussian, Inc.),
 the Gaussian(R) 03 system (copyright 2003, Gaussian, Inc.),
 the Gaussian(R) 98 system (copyright 1998, Gaussian, Inc.),
 the Gaussian(R) 94 system (copyright 1995, Gaussian, Inc.),
 the Gaussian 92(TM) system (copyright 1992, Gaussian, Inc.),
 the Gaussian 90(TM) system (copyright 1990, Gaussian, Inc.),
 the Gaussian 88(TM) system (copyright 1988, Gaussian, Inc.),
 the Gaussian 86(TM) system (copyright 1986, Carnegie Mellon
 University), and the Gaussian 82(TM) system (copyright 1983,
 Carnegie Mellon University). Gaussian is a federally registered
 trademark of Gaussian, Inc.
  
 This software contains proprietary and confidential information,
 including trade secrets, belonging to Gaussian, Inc.
  
 This software is provided under written license and may be
 used, copied, transmitted, or stored only in accord with that
 written license.
  
 The following legend is applicable only to US Government
 contracts under FAR:
  
                    RESTRICTED RIGHTS LEGEND
  
 Use, reproduction and disclosure by the US Government is
 subject to restrictions as set forth in subparagraphs (a)
 and (c) of the Commercial Computer Software - Restricted
 Rights clause in FAR 52.227-19.
  
 Gaussian, Inc.
 340 Quinnipiac St., Bldg. 40, Wallingford CT 06492
  
  
 ---------------------------------------------------------------
 Warning -- This program may not be used in any manner that
 competes with the business of Gaussian, Inc. or will provide
 assistance to any competitor of Gaussian, Inc.  The licensee
 of this program is prohibited from giving any competitor of
 Gaussian, Inc. access to this program.  By using this program,
 the user acknowledges that Gaussian, Inc. is engaged in the
 business of creating and licensing software in the field of
 computational chemistry and represents and warrants to the
 licensee that it is not a competitor of Gaussian, Inc. and that
 it will not use this program in any manner prohibited above.
 ---------------------------------------------------------------
  

 Cite this work as:
 Gaussian 16, Revision A.03,
 M. J. Frisch, G. W. Trucks, H. B. Schlegel, G. E. Scuseria, 
 M. A. Robb, J. R. Cheeseman, G. Scalmani, V. Barone, 
 G. A. Petersson, H. Nakatsuji, X. Li, M. Caricato, A. V. Marenich, 
 J. Bloino, B. G. Janesko, R. Gomperts, B. Mennucci, H. P. Hratchian, 
 J. V. Ortiz, A. F. Izmaylov, J. L. Sonnenberg, D. Williams-Young, 
 F. Ding, F. Lipparini, F. Egidi, J. Goings, B. Peng, A. Petrone, 
 T. Henderson, D. Ranasinghe, V. G. Zakrzewski, J. Gao, N. Rega, 
 G. Zheng, W. Liang, M. Hada, M. Ehara, K. Toyota, R. Fukuda, 
 J. Hasegawa, M. Ishida, T. Nakajima, Y. Honda, O. Kitao, H. Nakai, 
 T. Vreven, K. Throssell, J. A. Montgomery, Jr., J. E. Peralta, 
 F. Ogliaro, M. J. Bearpark, J. J. Heyd, E. N. Brothers, K. N. Kudin, 
 V. N. Staroverov, T. A. Keith, R. Kobayashi, J. Normand, 
 K. Raghavachari, A. P. Rendell, J. C. Burant, S. S. Iyengar, 
 J. Tomasi, M. Cossi, J. M. Millam, M. Klene, C. Adamo, R. Cammi, 
 J. W. Ochterski, R. L. Martin, K. Morokuma, O. Farkas, 
 J. B. Foresman, and D. J. Fox, Gaussian, Inc., Wallingford CT, 2016.
 
 ******************************************
 Gaussian 16:  ES64L-G16RevA.03 25-Dec-2016
                 2-Aug-2025 
 ******************************************
 %cpu=112-127
 SetSPE:  set environment variable "MP_BIND" = "yes"
 SetSPE:  set environment variable "MP_BLIST" = "112,113,114,115,116,117,118,119,120,121,122,123,124,125,126,127"
 Will use up to   16 processors via shared memory.
 %mem=100GB
 %chk=C.chk
 ---------------------------------
 # freq b3lyp/6-311g(d,p) em=gd3bj
 ---------------------------------
 1/10=4,30=1,38=1/1,3;
 2/12=2,17=6,18=5,40=1/2;
 3/5=4,6=6,7=101,11=2,25=1,30=1,71=2,74=-5,124=41,140=1/1,2,3;
 4//1;
 5/5=2,38=5,98=1/2;
 8/6=4,10=90,11=11/1;
 11/6=1,8=1,9=11,15=111,16=1/1,2,10;
 10/6=1/2;
 6/7=2,8=2,9=2,10=2,28=1/1;
 7/8=1,10=1,25=1/1,2,3,16;
 1/10=4,30=1/3;
 99//99;
 -------------------
 Title Card Required
 -------------------
 Symbolic Z-matrix:
 Charge =  0 Multiplicity = 3
 C                     0.16102   0.47458   0. 
 

 GradGradGradGradGradGradGradGradGradGradGradGradGradGradGradGradGradGrad
 Berny optimization.
 Initialization pass.
 Trust Radius=3.00D-01 FncErr=1.00D-07 GrdErr=1.00D-07 EigMax=2.50D+02 EigMin=1.00D-04
 Number of steps in this run=      2 maximum allowed number of steps=      2.
 GradGradGradGradGradGradGradGradGradGradGradGradGradGradGradGradGradGrad

                          Input orientation:                          
 ---------------------------------------------------------------------
 Center     Atomic      Atomic             Coordinates (Angstroms)
 Number     Number       Type             X           Y           Z
 ---------------------------------------------------------------------
      1          6           0        0.161017    0.474576    0.000000
 ---------------------------------------------------------------------
 Stoichiometry    C(3)
 Framework group  OH[O(C)]
 Deg. of freedom     0
 Full point group                 OH      NOp  48
 Largest Abelian subgroup         D2H     NOp   8
 Largest concise Abelian subgroup C1      NOp   1
                         Standard orientation:                         
 ---------------------------------------------------------------------
 Center     Atomic      Atomic             Coordinates (Angstroms)
 Number     Number       Type             X           Y           Z
 ---------------------------------------------------------------------
      1          6           0        0.000000    0.000000    0.000000
 ---------------------------------------------------------------------
 Standard basis: 6-311G(d,p) (5D, 7F)
 There are     7 symmetry adapted cartesian basis functions of AG  symmetry.
 There are     1 symmetry adapted cartesian basis functions of B1G symmetry.
 There are     1 symmetry adapted cartesian basis functions of B2G symmetry.
 There are     1 symmetry adapted cartesian basis functions of B3G symmetry.
 There are     0 symmetry adapted cartesian basis functions of AU  symmetry.
 There are     3 symmetry adapted cartesian basis functions of B1U symmetry.
 There are     3 symmetry adapted cartesian basis functions of B2U symmetry.
 There are     3 symmetry adapted cartesian basis functions of B3U symmetry.
 There are     6 symmetry adapted basis functions of AG  symmetry.
 There are     1 symmetry adapted basis functions of B1G symmetry.
 There are     1 symmetry adapted basis functions of B2G symmetry.
 There are     1 symmetry adapted basis functions of B3G symmetry.
 There are     0 symmetry adapted basis functions of AU  symmetry.
 There are     3 symmetry adapted basis functions of B1U symmetry.
 There are     3 symmetry adapted basis functions of B2U symmetry.
 There are     3 symmetry adapted basis functions of B3U symmetry.
    18 basis functions,    32 primitive gaussians,    19 cartesian basis functions
     4 alpha electrons        2 beta electrons
       nuclear repulsion energy         0.0000000000 Hartrees.
 NAtoms=    1 NActive=    1 NUniq=    1 SFac= 1.00D+00 NAtFMM=   60 NAOKFM=F Big=F
 Integral buffers will be    131072 words long.
 Raffenetti 2 integral format.
 Two-electron integral symmetry is turned on.
 Nuclear repulsion after empirical dispersion term =        0.0000000000 Hartrees.
 One-electron integrals computed using PRISM.
 NBasis=    18 RedAO= T EigKep=  1.09D-01  NBF=     6     1     1     1     0     3     3     3
 NBsUse=    18 1.00D-06 EigRej= -1.00D+00 NBFU=     6     1     1     1     0     3     3     3
 ExpMin= 1.46D-01 ExpMax= 4.56D+03 ExpMxC= 6.82D+02 IAcc=3 IRadAn=         5 AccDes= 0.00D+00
 Harris functional with IExCor=  402 and IRadAn=       5 diagonalized for initial guess.
 HarFok:  IExCor=  402 AccDes= 0.00D+00 IRadAn=         5 IDoV= 1 UseB2=F ITyADJ=14
 ICtDFT=  3500011 ScaDFX=  1.000000  1.000000  1.000000  1.000000
 FoFCou: FMM=F IPFlag=           0 FMFlag=      100000 FMFlg1=           0
         NFxFlg=           0 DoJE=T BraDBF=F KetDBF=T FulRan=T
         wScrn=  0.000000 ICntrl=       500 IOpCl=  0 I1Cent=   200000004 NGrid=           0
         NMat0=    1 NMatS0=      1 NMatT0=    0 NMatD0=    1 NMtDS0=    0 NMtDT0=    0
 Petite list used in FoFCou.
 Initial guess orbital symmetries:
 Alpha Orbitals:
       Occupied  (A1G) (A1G) (T1U) (T1U)
       Virtual   (T1U) (T1U) (T1U) (T1U) (A1G) (T2G) (T2G) (T2G)
                 (EG) (EG) (T1U) (T1U) (T1U) (A1G)
 Beta  Orbitals:
       Occupied  (A1G) (A1G)
       Virtual   (T1U) (T1U) (T1U) (T1U) (T1U) (T1U) (A1G) (T2G)
                 (T2G) (T2G) (EG) (EG) (T1U) (T1U) (T1U) (A1G)
 Initial guess <Sx>= 0.0000 <Sy>= 0.0000 <Sz>= 1.0000 <S**2>= 2.0000 S= 1.0000
 Keep R1 and R2 ints in memory in symmetry-blocked form, NReq=13803210.
 Requested convergence on RMS density matrix=1.00D-08 within 128 cycles.
 Requested convergence on MAX density matrix=1.00D-06.
 Requested convergence on             energy=1.00D-06.
 No special actions if energy rises.
 Integral accuracy reduced to 1.0D-05 until final iterations.
 Density matrix breaks symmetry, PCut= 1.00D-04
 Density has only Abelian symmetry.
 Density matrix breaks symmetry, PCut= 1.00D-04
 Density has only Abelian symmetry.
 Density matrix breaks symmetry, PCut= 1.00D-04
 Density has only Abelian symmetry.
 Density matrix breaks symmetry, PCut= 1.00D-04
 Density has only Abelian symmetry.
 Density matrix breaks symmetry, PCut= 1.00D-04
 Density has only Abelian symmetry.
 Initial convergence to 1.0D-05 achieved.  Increase integral accuracy.
 Density matrix breaks symmetry, PCut= 1.00D-04
 Density has only Abelian symmetry.
 Density matrix breaks symmetry, PCut= 1.00D-04
 Density has only Abelian symmetry.
 Density matrix breaks symmetry, PCut= 1.00D-04
 Density has only Abelian symmetry.
 Density matrix breaks symmetry, PCut= 1.00D-04
 Density has only Abelian symmetry.
 SCF Done:  E(UB3LYP) =  -37.8559884919     A.U. after    8 cycles
            NFock=  8  Conv=0.49D-08     -V/T= 2.0022
 <Sx>= 0.0000 <Sy>= 0.0000 <Sz>= 1.0000 <S**2>= 2.0026 S= 1.0009
 <L.S>= 0.000000000000E+00
 Annihilation of the first spin contaminant:
 S**2 before annihilation     2.0026,   after     2.0000
 DoSCS=F DFT=T ScalE2(SS,OS)=  1.000000  1.000000
 Range of M.O.s used for correlation:     1    18
 NBasis=    18 NAE=     4 NBE=     2 NFC=     0 NFV=     0
 NROrb=     18 NOA=     4 NOB=     2 NVA=    14 NVB=    16
 Symmetrizing basis deriv contribution to polar:
 IMax=3 JMax=2 DiffMx= 0.00D+00
 G2DrvN: will do     2 centers at a time, making    1 passes.
 Calling FoFCou, ICntrl=  3107 FMM=F I1Cent=   0 AccDes= 0.00D+00.
 End of G2Drv F.D. properties file   721 does not exist.
 End of G2Drv F.D. properties file   722 does not exist.
 End of G2Drv F.D. properties file   788 does not exist.
          IDoAtm=1
          Differentiating once with respect to electric field.
                with respect to dipole field.
          Differentiating once with respect to nuclear coordinates.
 Keep R1 and R2 ints in memory in symmetry-blocked form, NReq=13748374.
 CalDSu exits because no D1Ps are significant.
          There are     6 degrees of freedom in the 1st order CPHF.  IDoFFX=6 NUNeed=     3.
      3 vectors produced by pass  0 Test12= 1.47D-15 1.67D-08 XBig12= 1.28D+01 2.78D+00.
 AX will form     3 AO Fock derivatives at one time.
      3 vectors produced by pass  1 Test12= 1.47D-15 1.67D-08 XBig12= 3.93D-01 3.93D-01.
      3 vectors produced by pass  2 Test12= 1.47D-15 1.67D-08 XBig12= 2.23D-02 1.00D-01.
      3 vectors produced by pass  3 Test12= 1.47D-15 1.67D-08 XBig12= 4.54D-05 3.57D-03.
      3 vectors produced by pass  4 Test12= 1.47D-15 1.67D-08 XBig12= 7.03D-08 1.51D-04.
      3 vectors produced by pass  5 Test12= 1.47D-15 1.67D-08 XBig12= 2.38D-11 3.58D-06.
      3 vectors produced by pass  6 Test12= 1.47D-15 1.67D-08 XBig12= 2.97D-14 8.79D-08.
 InvSVY:  IOpt=1 It=  1 EMax= 1.11D-16
 Solved reduced A of dimension    21 with     3 vectors.
 Isotropic polarizability for W=    0.000000        7.26 Bohr**3.
 End of Minotr F.D. properties file   721 does not exist.
 End of Minotr F.D. properties file   722 does not exist.
 End of Minotr F.D. properties file   788 does not exist.
 SCF density gives NOpUse=  8 NOpAll= 48.

 **********************************************************************

            Population analysis using the SCF density.

 **********************************************************************

 Orbital symmetries:
 Alpha Orbitals:
       Occupied  (A1G) (?A) (?B) (?B)
       Virtual   (?B) (?B) (?B) (?B) (?A) (T2G) (?A) (T2G) (T2G)
                 (?A) (T1U) (T1U) (T1U) (A1G)
 Beta  Orbitals:
       Occupied  (A1G) (?A)
       Virtual   (?B) (?B) (?B) (?B) (?B) (?B) (?A) (?A) (T2G)
                 (T2G) (T2G) (?A) (T1U) (T1U) (T1U) (A1G)
 Unable to determine electronic state:  an orbital has unidentified symmetry.
 Alpha  occ. eigenvalues --  -10.29629  -0.58493  -0.26405  -0.26405
 Alpha virt. eigenvalues --   -0.15095   0.38855   0.38855   0.41034   0.42382
 Alpha virt. eigenvalues --    1.26539   1.26539   1.27346   1.27346   1.28848
 Alpha virt. eigenvalues --    2.51498   2.51498   2.53948  23.05542
  Beta  occ. eigenvalues --  -10.26681  -0.47547
  Beta virt. eigenvalues --   -0.12022  -0.07299  -0.07299   0.42700   0.46019
  Beta virt. eigenvalues --    0.46019   0.47568   1.33344   1.34680   1.34680
  Beta virt. eigenvalues --    1.38694   1.38694   2.55892   2.60410   2.60410
  Beta virt. eigenvalues --   23.08635
          Condensed to atoms (all electrons):
               1
     1  C    6.000000
          Atomic-Atomic Spin Densities.
               1
     1  C    2.000000
 Mulliken charges and spin densities:
               1          2
     1  C    0.000000   2.000000
 Sum of Mulliken charges =   0.00000   2.00000
 Mulliken charges and spin densities with hydrogens summed into heavy atoms:
               1          2
     1  C    0.000000   2.000000
 APT charges:
               1
     1  C   -0.000000
 Sum of APT charges =  -0.00000
 APT charges with hydrogens summed into heavy atoms:
               1
     1  C   -0.000000
 Electronic spatial extent (au):  <R**2>=             13.6191
 Charge=             -0.0000 electrons
 Dipole moment (field-independent basis, Debye):
    X=              0.0000    Y=              0.0000    Z=              0.0000  Tot=              0.0000
 Quadrupole moment (field-independent basis, Debye-Ang):
   XX=             -6.7487   YY=             -4.8207   ZZ=             -6.7487
   XY=             -0.0000   XZ=              0.0000   YZ=              0.0000
 Traceless Quadrupole moment (field-independent basis, Debye-Ang):
   XX=             -0.6427   YY=              1.2853   ZZ=             -0.6427
   XY=             -0.0000   XZ=              0.0000   YZ=              0.0000
 Octapole moment (field-independent basis, Debye-Ang**2):
  XXX=              0.0000  YYY=              0.0000  ZZZ=              0.0000  XYY=              0.0000
  XXY=              0.0000  XXZ=              0.0000  XZZ=              0.0000  YZZ=              0.0000
  YYZ=              0.0000  XYZ=              0.0000
 Hexadecapole moment (field-independent basis, Debye-Ang**3):
 XXXX=             -8.3164 YYYY=             -4.6234 ZZZZ=             -8.3164 XXXY=             -0.0000
 XXXZ=              0.0000 YYYX=             -0.0000 YYYZ=              0.0000 ZZZX=              0.0000
 ZZZY=              0.0000 XXYY=             -2.1565 XXZZ=             -2.7721 YYZZ=             -2.1565
 XXYZ=              0.0000 YYXZ=              0.0000 ZZXY=             -0.0000
 N-N= 0.000000000000D+00 E-N=-8.828010934349D+01  KE= 3.777319604885D+01
 Symmetry AG   KE= 3.517875979914D+01
 Symmetry B1G  KE= 8.262241840024D-36
 Symmetry B2G  KE= 2.018616178293D-52
 Symmetry B3G  KE= 8.262241840024D-36
 Symmetry AU   KE= 0.000000000000D+00
 Symmetry B1U  KE= 1.297218124857D+00
 Symmetry B2U  KE= 4.863788932502D-33
 Symmetry B3U  KE= 1.297218124857D+00
 Symmetry AG   SP=-6.124658072371D-16
 Symmetry B1G  SP=-2.292387041959D-36
 Symmetry B2G  SP=-1.535536420427D-52
 Symmetry B3G  SP=-2.292387041959D-36
 Symmetry AU   SP= 0.000000000000D+00
 Symmetry B1U  SP= 1.000000000000D+00
 Symmetry B2U  SP= 3.749399456655D-33
 Symmetry B3U  SP= 1.000000000000D+00
  Exact polarizability:   7.180   0.000   7.428   0.000   0.000   7.180
 Approx polarizability:   7.240  -0.000  10.892  -0.000  -0.000   7.240
                          Isotropic Fermi Contact Couplings
        Atom                 a.u.       MegaHertz       Gauss      10(-4) cm-1
     1  C(13)              0.02450      13.77298       4.91454       4.59417
 --------------------------------------------------------
       Center         ----  Spin Dipole Couplings  ----
                      3XX-RR        3YY-RR        3ZZ-RR
 --------------------------------------------------------
     1   Atom        0.718918     -1.437836      0.718918
 --------------------------------------------------------
                        XY            XZ            YZ
 --------------------------------------------------------
     1   Atom        0.000000      0.000000      0.000000
 --------------------------------------------------------


 ---------------------------------------------------------------------------------
              Anisotropic Spin Dipole Couplings in Principal Axis System
 ---------------------------------------------------------------------------------

       Atom             a.u.   MegaHertz   Gauss  10(-4) cm-1        Axes

              Baa    -1.4378  -192.944   -68.847   -64.359 -0.0000  1.0000  0.0000
     1 C(13)  Bbb     0.7189    96.472    34.424    32.180  0.0000  0.0000  1.0000
              Bcc     0.7189    96.472    34.424    32.180  1.0000  0.0000  0.0000
 

 ---------------------------------------------------------------------------------

 Density matrix has only Abelian symmetry.
 Density matrix has only Abelian symmetry.
 Calling FoFJK, ICntrl=    100127 FMM=F ISym2X=1 I1Cent= 0 IOpClX= 1 NMat=1 NMatS=1 NMatT=0.
 Full mass-weighted force constant matrix:
 Low frequencies ---    0.0000    0.0000    0.0000
 Diagonal vibrational polarizability:
        0.0000000       0.0000000       0.0000000
 Harmonic frequencies (cm**-1), IR intensities (KM/Mole), Raman scattering
 activities (A**4/AMU), depolarization ratios for plane and unpolarized
 incident light, reduced masses (AMU), force constants (mDyne/A),
 and normal coordinates:

 -------------------
 - Thermochemistry -
 -------------------
 Temperature   298.150 Kelvin.  Pressure   1.00000 Atm.
 Atom     1 has atomic number  6 and mass  12.00000
 Molecular mass:    12.00000 amu.
 Zero-point vibrational energy          0.0 (Joules/Mol)
                                    0.00000 (Kcal/Mol)
 Vibrational temperatures: 
          (Kelvin)
 
 Zero-point correction=                           0.000000 (Hartree/Particle)
 Thermal correction to Energy=                    0.001416
 Thermal correction to Enthalpy=                  0.002360
 Thermal correction to Gibbs Free Energy=        -0.014545
 Sum of electronic and zero-point Energies=            -37.855988
 Sum of electronic and thermal Energies=               -37.854572
 Sum of electronic and thermal Enthalpies=             -37.853628
 Sum of electronic and thermal Free Energies=          -37.870534
 
                     E (Thermal)             CV                S
                      KCal/Mol        Cal/Mol-Kelvin    Cal/Mol-Kelvin
 Total                    0.889              2.981             35.581
 Electronic               0.000              0.000              2.183
 Translational            0.889              2.981             33.398
 Rotational               0.000              0.000              0.000
 Vibrational              0.000              0.000              0.000
                       Q            Log10(Q)             Ln(Q)
 Total Bot       0.490170D+07          6.690347         15.405093
 Total V=0       0.490170D+07          6.690347         15.405093
 Vib (Bot)       0.100000D+01          0.000000          0.000000
 Vib (V=0)       0.100000D+01          0.000000          0.000000
 Electronic      0.300000D+01          0.477121          1.098612
 Translational   0.163390D+07          6.213226         14.306481
 Rotational      0.100000D+01          0.000000          0.000000
 ***** Axes restored to original set *****
 -------------------------------------------------------------------
 Center     Atomic                   Forces (Hartrees/Bohr)
 Number     Number              X              Y              Z
 -------------------------------------------------------------------
      1        6          -0.000000000   -0.000000000   -0.000000000
 -------------------------------------------------------------------
 Cartesian Forces:  Max     0.000000000 RMS     0.000000000

 GradGradGradGradGradGradGradGradGradGradGradGradGradGradGradGradGradGrad
 Berny optimization.
 Search for a local minimum.
 Step number   1 out of a maximum of    2
 All quantities printed in internal units (Hartrees-Bohrs-Radians)
 Second derivative matrix not updated -- analytic derivatives used.
 The second derivative matrix:
                          X1        Y1        Z1
           X1           0.00000
           Y1           0.00000   0.00000
           Z1           0.00000   0.00000   0.00000
 ITU=  0
     Eigenvalues --- 
 Angle between quadratic step and forces=  90.00 degrees.
 Linear search not attempted -- first point.
 B after Tr=     0.000000    0.000000    0.000000
         Rot=    1.000000    0.000000    0.000000    0.000000 Ang=   0.00 deg.
 Variable       Old X    -DE/DX   Delta X   Delta X   Delta X     New X
                                 (Linear)    (Quad)   (Total)
    X1        0.30428  -0.00000   0.00000   0.00000   0.00000   0.30428
    Y1        0.89682  -0.00000   0.00000   0.00000   0.00000   0.89682
    Z1        0.00000  -0.00000   0.00000   0.00000   0.00000   0.00000
         Item               Value     Threshold  Converged?
 Maximum Force            0.000000     0.000450     YES
 RMS     Force            0.000000     0.000300     YES
 Maximum Displacement     0.000000     0.001800     YES
 RMS     Displacement     0.000000     0.001200     YES
 Predicted change in Energy=-0.000000D+00
 Optimization completed.
    -- Stationary point found.
 GradGradGradGradGradGradGradGradGradGradGradGradGradGradGradGradGradGrad

 Dipole is zero, so no output in dipole orientation.

 ----------------------------------------------------------------------

 Electric dipole moment (input orientation):
 (Debye = 10**-18 statcoulomb cm , SI units = C m)
                  (au)            (Debye)         (10**-30 SI)
   Tot        0.000000D+00      0.000000D+00      0.000000D+00
   x          0.000000D+00      0.000000D+00      0.000000D+00
   y          0.000000D+00      0.000000D+00      0.000000D+00
   z          0.000000D+00      0.000000D+00      0.000000D+00

 Dipole polarizability, Alpha (input orientation).
 (esu units = cm**3 , SI units = C**2 m**2 J**-1)
 Alpha(0;0):
               (au)            (10**-24 esu)      (10**-40 SI)
   iso        0.726255D+01      0.107620D+01      0.119743D+01
   aniso      0.248799D+00      0.368681D-01      0.410213D-01
   xx         0.717961D+01      0.106391D+01      0.118376D+01
   yx         0.000000D+00      0.000000D+00      0.000000D+00
   yy         0.742841D+01      0.110078D+01      0.122478D+01
   zx         0.000000D+00      0.000000D+00      0.000000D+00
   zy         0.000000D+00      0.000000D+00      0.000000D+00
   zz         0.717961D+01      0.106391D+01      0.118376D+01

 ----------------------------------------------------------------------
 1\1\GINC-NODE01\Freq\UB3LYP\6-311G(d,p)\C1(3)\HONGCHANG\02-Aug-2025\0\
 \# freq b3lyp/6-311g(d,p) em=gd3bj\\Title Card Required\\0,3\C,0.16101
 694,0.47457626,0.\\Version=ES64L-G16RevA.03\HF=-37.8559885\S2=2.002584
 \S2-1=0.\S2A=2.\RMSD=4.869e-09\RMSF=0.000e+00\Thermal=0.0014163\Dipole
 =0.,0.,0.\DipoleDeriv=0.,0.,0.,0.,0.,0.,0.,0.,0.\Polar=7.1796132,0.,7.
 4284118,0.,0.,7.1796132\Quadrupole=-0.4778003,0.9556005,-0.4778003,0.,
 0.,0.\PG=OH [O(C1)]\NImag=0\\0.,0.,0.,0.,0.,0.\\0.,0.,0.\\\@


 ERWIN WITH HIS PSI CAN DO
 CALCULATIONS QUITE A FEW.
 BUT ONE THING HAS NOT BEEN SEEN
 JUST WHAT DOES PSI REALLY MEAN.
 -- WALTER HUCKEL, TRANS. BY FELIX BLOCH
 Job cpu time:       0 days  0 hours  0 minutes 20.2 seconds.
 Elapsed time:       0 days  0 hours  0 minutes  1.5 seconds.
 File lengths (MBytes):  RWF=      6 Int=      0 D2E=      0 Chk=      1 Scr=      1
 Normal termination of Gaussian 16 at Sat Aug  2 20:34:04 2025.
 Initial command:
 /home/hongchang/software/g16/l1.exe "/home/hongchang/software/g16/scratch/Gau-70011.inp" -scrdir="/home/hongchang/software/g16/scratch/"
 Entering Link 1 = /home/hongchang/software/g16/l1.exe PID=     70377.
  
 Copyright (c) 1988,1990,1992,1993,1995,1998,2003,2009,2016,
            Gaussian, Inc.  All Rights Reserved.
  
 This is part of the Gaussian(R) 16 program.  It is based on
 the Gaussian(R) 09 system (copyright 2009, Gaussian, Inc.),
 the Gaussian(R) 03 system (copyright 2003, Gaussian, Inc.),
 the Gaussian(R) 98 system (copyright 1998, Gaussian, Inc.),
 the Gaussian(R) 94 system (copyright 1995, Gaussian, Inc.),
 the Gaussian 92(TM) system (copyright 1992, Gaussian, Inc.),
 the Gaussian 90(TM) system (copyright 1990, Gaussian, Inc.),
 the Gaussian 88(TM) system (copyright 1988, Gaussian, Inc.),
 the Gaussian 86(TM) system (copyright 1986, Carnegie Mellon
 University), and the Gaussian 82(TM) system (copyright 1983,
 Carnegie Mellon University). Gaussian is a federally registered
 trademark of Gaussian, Inc.
  
 This software contains proprietary and confidential information,
 including trade secrets, belonging to Gaussian, Inc.
  
 This software is provided under written license and may be
 used, copied, transmitted, or stored only in accord with that
 written license.
  
 The following legend is applicable only to US Government
 contracts under FAR:
  
                    RESTRICTED RIGHTS LEGEND
  
 Use, reproduction and disclosure by the US Government is
 subject to restrictions as set forth in subparagraphs (a)
 and (c) of the Commercial Computer Software - Restricted
 Rights clause in FAR 52.227-19.
  
 Gaussian, Inc.
 340 Quinnipiac St., Bldg. 40, Wallingford CT 06492
  
  
 ---------------------------------------------------------------
 Warning -- This program may not be used in any manner that
 competes with the business of Gaussian, Inc. or will provide
 assistance to any competitor of Gaussian, Inc.  The licensee
 of this program is prohibited from giving any competitor of
 Gaussian, Inc. access to this program.  By using this program,
 the user acknowledges that Gaussian, Inc. is engaged in the
 business of creating and licensing software in the field of
 computational chemistry and represents and warrants to the
 licensee that it is not a competitor of Gaussian, Inc. and that
 it will not use this program in any manner prohibited above.
 ---------------------------------------------------------------
  

 Cite this work as:
 Gaussian 16, Revision A.03,
 M. J. Frisch, G. W. Trucks, H. B. Schlegel, G. E. Scuseria, 
 M. A. Robb, J. R. Cheeseman, G. Scalmani, V. Barone, 
 G. A. Petersson, H. Nakatsuji, X. Li, M. Caricato, A. V. Marenich, 
 J. Bloino, B. G. Janesko, R. Gomperts, B. Mennucci, H. P. Hratchian, 
 J. V. Ortiz, A. F. Izmaylov, J. L. Sonnenberg, D. Williams-Young, 
 F. Ding, F. Lipparini, F. Egidi, J. Goings, B. Peng, A. Petrone, 
 T. Henderson, D. Ranasinghe, V. G. Zakrzewski, J. Gao, N. Rega, 
 G. Zheng, W. Liang, M. Hada, M. Ehara, K. Toyota, R. Fukuda, 
 J. Hasegawa, M. Ishida, T. Nakajima, Y. Honda, O. Kitao, H. Nakai, 
 T. Vreven, K. Throssell, J. A. Montgomery, Jr., J. E. Peralta, 
 F. Ogliaro, M. J. Bearpark, J. J. Heyd, E. N. Brothers, K. N. Kudin, 
 V. N. Staroverov, T. A. Keith, R. Kobayashi, J. Normand, 
 K. Raghavachari, A. P. Rendell, J. C. Burant, S. S. Iyengar, 
 J. Tomasi, M. Cossi, J. M. Millam, M. Klene, C. Adamo, R. Cammi, 
 J. W. Ochterski, R. L. Martin, K. Morokuma, O. Farkas, 
 J. B. Foresman, and D. J. Fox, Gaussian, Inc., Wallingford CT, 2016.
 
 ******************************************
 Gaussian 16:  ES64L-G16RevA.03 25-Dec-2016
                 2-Aug-2025 
 ******************************************
 %cpu=112-127
 SetSPE:  set environment variable "MP_BIND" = "yes"
 SetSPE:  set environment variable "MP_BLIST" = "112,113,114,115,116,117,118,119,120,121,122,123,124,125,126,127"
 Will use up to   16 processors via shared memory.
 %mem=100GB
 %oldchk=C.chk
 %chk=C_sp.chk
 Copying data from "C.chk" to current chk file "C_sp.chk"
 IOpt=  2 FromEx=T IUOpen= 4 IOptOp= 5 NList=   0 IFRang= 0 IUIn= 4 IUOut= 2.
 ----------------------------------
 # m062x/def2tzvp geom=check em=gd3
 ----------------------------------
 1/29=2,38=1,172=1/1;
 2/12=2,40=1/2;
 3/5=44,7=101,11=2,14=-4,25=1,30=1,74=-55,124=31/1,2,3;
 4//1;
 5/5=2,38=5/2;
 6/7=2,8=2,9=2,10=2,28=1/1;
 99/5=1,9=1/99;
 ----
 C sp
 ----
 Structure from the checkpoint file:  "C_sp.chk"
 Charge =  0 Multiplicity = 3
 No Z-Matrix found in chk file; cartesian coordinates used.
  C                                                 0.161016940000      0.474576260000      0.000000000000
 Recover connectivity data from disk.
                          Input orientation:                          
 ---------------------------------------------------------------------
 Center     Atomic      Atomic             Coordinates (Angstroms)
 Number     Number       Type             X           Y           Z
 ---------------------------------------------------------------------
      1          6           0        0.161017    0.474576    0.000000
 ---------------------------------------------------------------------
 Stoichiometry    C(3)
 Framework group  OH[O(C)]
 Deg. of freedom     0
 Full point group                 OH      NOp  48
 Largest Abelian subgroup         D2H     NOp   8
 Largest concise Abelian subgroup C1      NOp   1
                         Standard orientation:                         
 ---------------------------------------------------------------------
 Center     Atomic      Atomic             Coordinates (Angstroms)
 Number     Number       Type             X           Y           Z
 ---------------------------------------------------------------------
      1          6           0        0.000000    0.000000    0.000000
 ---------------------------------------------------------------------
 Standard basis: def2TZVP (5D, 7F)
 There are    11 symmetry adapted cartesian basis functions of AG  symmetry.
 There are     2 symmetry adapted cartesian basis functions of B1G symmetry.
 There are     2 symmetry adapted cartesian basis functions of B2G symmetry.
 There are     2 symmetry adapted cartesian basis functions of B3G symmetry.
 There are     1 symmetry adapted cartesian basis functions of AU  symmetry.
 There are     6 symmetry adapted cartesian basis functions of B1U symmetry.
 There are     6 symmetry adapted cartesian basis functions of B2U symmetry.
 There are     6 symmetry adapted cartesian basis functions of B3U symmetry.
 There are     9 symmetry adapted basis functions of AG  symmetry.
 There are     2 symmetry adapted basis functions of B1G symmetry.
 There are     2 symmetry adapted basis functions of B2G symmetry.
 There are     2 symmetry adapted basis functions of B3G symmetry.
 There are     1 symmetry adapted basis functions of AU  symmetry.
 There are     5 symmetry adapted basis functions of B1U symmetry.
 There are     5 symmetry adapted basis functions of B2U symmetry.
 There are     5 symmetry adapted basis functions of B3U symmetry.
    31 basis functions,    51 primitive gaussians,    36 cartesian basis functions
     4 alpha electrons        2 beta electrons
       nuclear repulsion energy         0.0000000000 Hartrees.
 NAtoms=    1 NActive=    1 NUniq=    1 SFac= 1.00D+00 NAtFMM=   60 NAOKFM=F Big=F
 Integral buffers will be    131072 words long.
 Raffenetti 2 integral format.
 Two-electron integral symmetry is turned on.
 Nuclear repulsion after empirical dispersion term =        0.0000000000 Hartrees.
 One-electron integrals computed using PRISM.
  48 Symmetry operations used in ECPInt.
 ECPInt:  NShTT=      66 NPrTT=     232 LenC2=      67 LenP2D=     232.
 LDataN:  DoStor=T MaxTD1= 6 Len=  172
 NBasis=    31 RedAO= T EigKep=  2.86D-02  NBF=     9     2     2     2     1     5     5     5
 NBsUse=    31 1.00D-06 EigRej= -1.00D+00 NBFU=     9     2     2     2     1     5     5     5
 ExpMin= 9.52D-02 ExpMax= 1.36D+04 ExpMxC= 4.63D+02 IAcc=3 IRadAn=         5 AccDes= 0.00D+00
 Harris functional with IExCor= 1009 and IRadAn=       5 diagonalized for initial guess.
 HarFok:  IExCor= 1009 AccDes= 0.00D+00 IRadAn=         5 IDoV= 1 UseB2=F ITyADJ=14
 ICtDFT=  3500011 ScaDFX=  1.000000  1.000000  1.000000  1.000000
 FoFCou: FMM=F IPFlag=           0 FMFlag=      100000 FMFlg1=           0
         NFxFlg=           0 DoJE=T BraDBF=F KetDBF=T FulRan=T
         wScrn=  0.000000 ICntrl=       500 IOpCl=  0 I1Cent=   200000004 NGrid=           0
         NMat0=    1 NMatS0=      1 NMatT0=    0 NMatD0=    1 NMtDS0=    0 NMtDT0=    0
 Petite list used in FoFCou.
 Initial guess orbital symmetries:
 Alpha Orbitals:
       Occupied  (A1G) (A1G) (T1U) (T1U)
       Virtual   (T1U) (A1G) (T1U) (T1U) (T1U) (T2G) (T2G) (T2G)
                 (EG) (EG) (A1G) (T1U) (T1U) (T1U) (T2U) (T2U)
                 (T2U) (A2U) (T1U) (T1U) (T1U) (T2G) (T2G) (T2G)
                 (EG) (EG) (A1G)
 Beta  Orbitals:
       Occupied  (A1G) (A1G)
       Virtual   (T1U) (T1U) (T1U) (A1G) (T1U) (T1U) (T1U) (T2G)
                 (T2G) (T2G) (EG) (EG) (A1G) (T1U) (T1U) (T1U)
                 (T2U) (T2U) (T2U) (A2U) (T1U) (T1U) (T1U) (T2G)
                 (T2G) (T2G) (EG) (EG) (A1G)
 Initial guess <Sx>= 0.0000 <Sy>= 0.0000 <Sz>= 1.0000 <S**2>= 2.0000 S= 1.0000
 Keep R1 and R2 ints in memory in symmetry-blocked form, NReq=13943490.
 Requested convergence on RMS density matrix=1.00D-08 within 128 cycles.
 Requested convergence on MAX density matrix=1.00D-06.
 Requested convergence on             energy=1.00D-06.
 No special actions if energy rises.
 Integral accuracy reduced to 1.0D-05 until final iterations.
 Density matrix breaks symmetry, PCut= 1.00D-04
 Density has only Abelian symmetry.
 Density matrix breaks symmetry, PCut= 1.00D-04
 Density has only Abelian symmetry.
 Density matrix breaks symmetry, PCut= 1.00D-04
 Density has only Abelian symmetry.
 Density matrix breaks symmetry, PCut= 1.00D-04
 Density has only Abelian symmetry.
 Density matrix breaks symmetry, PCut= 1.00D-04
 Density has only Abelian symmetry.
 Initial convergence to 1.0D-05 achieved.  Increase integral accuracy.
 Density matrix breaks symmetry, PCut= 1.00D-04
 Density has only Abelian symmetry.
 Density matrix breaks symmetry, PCut= 1.00D-04
 Density has only Abelian symmetry.
 Density matrix breaks symmetry, PCut= 1.00D-04
 Density has only Abelian symmetry.
 Density matrix breaks symmetry, PCut= 1.00D-04
 Density has only Abelian symmetry.
 Density matrix breaks symmetry, PCut= 1.00D-04
 Density has only Abelian symmetry.
 Density matrix breaks symmetry, PCut= 1.00D-04
 Density has only Abelian symmetry.
 Density matrix breaks symmetry, PCut= 1.00D-04
 Density has only Abelian symmetry.
 SCF Done:  E(UM062X) =  -37.8425055992     A.U. after   11 cycles
            NFock= 11  Conv=0.11D-08     -V/T= 2.0032
 <Sx>= 0.0000 <Sy>= 0.0000 <Sz>= 1.0000 <S**2>= 2.0035 S= 1.0012
 <L.S>= 0.000000000000E+00
 Annihilation of the first spin contaminant:
 S**2 before annihilation     2.0035,   after     2.0000
 SCF density gives NOpUse=  8 NOpAll= 48.

 **********************************************************************

            Population analysis using the SCF density.

 **********************************************************************

 Orbital symmetries:
 Alpha Orbitals:
       Occupied  (A1G) (?A) (?B) (?B)
       Virtual   (?B) (?A) (?B) (?B) (?B) (?A) (T2G) (T2G) (T2G)
                 (?A) (A1G) (?B) (?B) (?B) (?C) (?C) (?C) (A2U)
                 (?C) (?C) (?C) (EG) (T2G) (EG) (T2G) (T2G) (A1G)
 Beta  Orbitals:
       Occupied  (A1G) (?A)
       Virtual   (?B) (?B) (?B) (A1G) (?B) (?B) (?B) (?A) (T2G)
                 (T2G) (T2G) (?A) (?A) (?B) (?B) (?B) (?B) (?B)
                 (?B) (A2U) (?B) (?B) (?B) (?A) (T2G) (T2G) (T2G)
                 (?A) (A1G)
 Unable to determine electronic state:  an orbital has unidentified symmetry.
 Alpha  occ. eigenvalues --  -10.66126  -0.66874  -0.32390  -0.32390
 Alpha virt. eigenvalues --   -0.09718   0.19747   0.28278   0.28278   0.28653
 Alpha virt. eigenvalues --    0.70471   0.70471   0.70537   0.70537   0.71218
 Alpha virt. eigenvalues --    1.24008   1.41059   1.41059   1.42131   2.64300
 Alpha virt. eigenvalues --    2.64300   2.65299   2.65299   2.65641   2.65841
 Alpha virt. eigenvalues --    2.65841   2.89354   2.89354   2.89976   2.90812
 Alpha virt. eigenvalues --    2.90812  21.29695
  Beta  occ. eigenvalues --  -10.64138  -0.53970
  Beta virt. eigenvalues --   -0.06815  -0.04124  -0.04124   0.14086   0.25768
  Beta virt. eigenvalues --    0.25768   0.26178   0.70458   0.71088   0.71088
  Beta virt. eigenvalues --    0.72195   0.72195   1.25372   1.40925   1.46305
  Beta virt. eigenvalues --    1.46305   2.61815   2.62205   2.62205   2.62881
  Beta virt. eigenvalues --    2.62881   2.64564   2.64564   2.94225   2.95520
  Beta virt. eigenvalues --    2.95520   3.00019   3.00019  21.30529
          Condensed to atoms (all electrons):
               1
     1  C    6.000000
          Atomic-Atomic Spin Densities.
               1
     1  C    2.000000
 Mulliken charges and spin densities:
               1          2
     1  C    0.000000   2.000000
 Sum of Mulliken charges =   0.00000   2.00000
 Mulliken charges and spin densities with hydrogens summed into heavy atoms:
               1          2
     1  C    0.000000   2.000000
 Electronic spatial extent (au):  <R**2>=             13.9052
 Charge=              0.0000 electrons
 Dipole moment (field-independent basis, Debye):
    X=              0.0000    Y=              0.0000    Z=              0.0000  Tot=              0.0000
 Quadrupole moment (field-independent basis, Debye-Ang):
   XX=             -4.9292   YY=             -6.8869   ZZ=             -6.8869
   XY=              0.0000   XZ=             -0.0000   YZ=             -0.0000
 Traceless Quadrupole moment (field-independent basis, Debye-Ang):
   XX=              1.3051   YY=             -0.6526   ZZ=             -0.6526
   XY=              0.0000   XZ=             -0.0000   YZ=             -0.0000
 Octapole moment (field-independent basis, Debye-Ang**2):
  XXX=              0.0000  YYY=              0.0000  ZZZ=              0.0000  XYY=              0.0000
  XXY=              0.0000  XXZ=              0.0000  XZZ=              0.0000  YZZ=              0.0000
  YYZ=              0.0000  XYZ=              0.0000
 Hexadecapole moment (field-independent basis, Debye-Ang**3):
 XXXX=             -5.0456 YYYY=             -9.2038 ZZZZ=             -9.2038 XXXY=              0.0000
 XXXZ=             -0.0000 YYYX=              0.0000 YYYZ=             -0.0000 ZZZX=             -0.0000
 ZZZY=              0.0000 XXYY=             -2.3768 XXZZ=             -2.3768 YYZZ=             -3.0679
 XXYZ=             -0.0000 YYXZ=             -0.0000 ZZXY=              0.0000
 N-N= 0.000000000000D+00 E-N=-8.819534209559D+01  KE= 3.772018917072D+01
 Symmetry AG   KE= 3.515451838371D+01
 Symmetry B1G  KE= 4.282999483598D-36
 Symmetry B2G  KE= 4.282999483599D-36
 Symmetry B3G  KE=-1.757011053000D-52
 Symmetry AU   KE= 6.262296011771D-37
 Symmetry B1U  KE= 1.282835393504D+00
 Symmetry B2U  KE= 1.282835393504D+00
 Symmetry B3U  KE= 4.811741012972D-33
 Symmetry AG   SP=-7.151505949932D-15
 Symmetry B1G  SP=-1.829385728199D-36
 Symmetry B2G  SP=-1.829385728199D-36
 Symmetry B3G  SP= 7.342837636178D-53
 Symmetry AU   SP= 1.828674554467D-37
 Symmetry B1U  SP= 1.000000000000D+00
 Symmetry B2U  SP= 1.000000000000D+00
 Symmetry B3U  SP= 3.749948058083D-33
                          Isotropic Fermi Contact Couplings
        Atom                 a.u.       MegaHertz       Gauss      10(-4) cm-1
     1  C(13)              0.16320      91.73217      32.73232      30.59856
 --------------------------------------------------------
       Center         ----  Spin Dipole Couplings  ----
                      3XX-RR        3YY-RR        3ZZ-RR
 --------------------------------------------------------
     1   Atom       -1.410541      0.705270      0.705270
 --------------------------------------------------------
                        XY            XZ            YZ
 --------------------------------------------------------
     1   Atom        0.000000      0.000000      0.000000
 --------------------------------------------------------


 ---------------------------------------------------------------------------------
              Anisotropic Spin Dipole Couplings in Principal Axis System
 ---------------------------------------------------------------------------------

       Atom             a.u.   MegaHertz   Gauss  10(-4) cm-1        Axes

              Baa    -1.4105  -189.281   -67.540   -63.137  1.0000  0.0000  0.0000
     1 C(13)  Bbb     0.7053    94.641    33.770    31.569  0.0000  0.0000  1.0000
              Bcc     0.7053    94.641    33.770    31.569 -0.0000  1.0000  0.0000
 

 ---------------------------------------------------------------------------------

 1\1\GINC-NODE01\SP\UM062X\def2TZVP\C1(3)\HONGCHANG\02-Aug-2025\0\\# m0
 62x/def2tzvp geom=check em=gd3\\C sp\\0,3\C,0.16101694,0.47457626,0.\\
 Version=ES64L-G16RevA.03\HF=-37.8425056\S2=2.003523\S2-1=0.\S2A=2.\RMS
 D=1.101e-09\Dipole=0.,0.,0.\Quadrupole=-0.4851567,-0.4851567,0.9703134
 ,0.,0.,0.\PG=OH [O(C1)]\\@


 EXPERIMENTALISTS THINK SILICON IS REALLY FUN TO USE
     ITS PLACE IN NOVEL COMPOUNDS IS CERTAIN TO AMUSE
 THEY SIT ALL DAY IN LABORATORIES MAKING ALL THIS SLUDGE
     "LOADED WITH THE SILICON THEY SAY", TO ME IT LOOKS LIKE FUDGE.
 FOR HAPPY THOUGH THEY BE WITH CRUD, I'D LIKE TO KNOW A LITTLE
      ABOUT THE PI BONDS ON THE EDGE AND SIGMAS IN THE MIDDLE.

 SO LETS DERIVE A WAVEFUNCTION.....6-31G*
     USE AN OPTIMAL GEOMETRY AND SEE WHERE ELECTRONS ARE.
 BUT WHAT OF CORRELATION?  ASKS THE WIRY LITTLE SKEPTIC.
     WE'LL THROW IN PERTURBATION AS AN ELECTRON ANTISEPTIC.
 AND WHEN THE PROGRAM GIVES US ANSWERS IN THEM WE CAN TRUST
     SINCE NOBODY CAN MAKE THE STUFF, WE HAVE NO CHOICE, WE MUST.

 SO THEORY GUYS HAVE GOT IT MADE, IN ROOMS FREE OF POLLUTION.
     INSTEAD OF PROBLEMS WITH THE REFLUX, THEY HAVE ONLY SOLUTIONS.
 AND WHEN THE FEDS ANNOUNCE THE LIST OF CARCINOGENIC TERRORS,
     THE THEORISTS SIT SAFELY AT THEIR TERMINALS FIXING ERRORS.
 IN OTHER WORDS, EXPERIMENTALISTS WILL LIKELY DIE OF CANCER
     FROM WORKING HARD YET FRUITLESSLY...TILL THEORY GIVES THE ANSWER.
          -- THOMAS A. HOLME, 1983
 Job cpu time:       0 days  0 hours  0 minutes 10.9 seconds.
 Elapsed time:       0 days  0 hours  0 minutes  0.8 seconds.
 File lengths (MBytes):  RWF=      6 Int=      0 D2E=      0 Chk=      1 Scr=      1
 Normal termination of Gaussian 16 at Sat Aug  2 20:34:05 2025.
 Initial command:
 /home/hongchang/software/g16/l1.exe "/home/hongchang/software/g16/scratch/Gau-70011.inp" -scrdir="/home/hongchang/software/g16/scratch/"
 Entering Link 1 = /home/hongchang/software/g16/l1.exe PID=     70549.
  
 Copyright (c) 1988,1990,1992,1993,1995,1998,2003,2009,2016,
            Gaussian, Inc.  All Rights Reserved.
  
 This is part of the Gaussian(R) 16 program.  It is based on
 the Gaussian(R) 09 system (copyright 2009, Gaussian, Inc.),
 the Gaussian(R) 03 system (copyright 2003, Gaussian, Inc.),
 the Gaussian(R) 98 system (copyright 1998, Gaussian, Inc.),
 the Gaussian(R) 94 system (copyright 1995, Gaussian, Inc.),
 the Gaussian 92(TM) system (copyright 1992, Gaussian, Inc.),
 the Gaussian 90(TM) system (copyright 1990, Gaussian, Inc.),
 the Gaussian 88(TM) system (copyright 1988, Gaussian, Inc.),
 the Gaussian 86(TM) system (copyright 1986, Carnegie Mellon
 University), and the Gaussian 82(TM) system (copyright 1983,
 Carnegie Mellon University). Gaussian is a federally registered
 trademark of Gaussian, Inc.
  
 This software contains proprietary and confidential information,
 including trade secrets, belonging to Gaussian, Inc.
  
 This software is provided under written license and may be
 used, copied, transmitted, or stored only in accord with that
 written license.
  
 The following legend is applicable only to US Government
 contracts under FAR:
  
                    RESTRICTED RIGHTS LEGEND
  
 Use, reproduction and disclosure by the US Government is
 subject to restrictions as set forth in subparagraphs (a)
 and (c) of the Commercial Computer Software - Restricted
 Rights clause in FAR 52.227-19.
  
 Gaussian, Inc.
 340 Quinnipiac St., Bldg. 40, Wallingford CT 06492
  
  
 ---------------------------------------------------------------
 Warning -- This program may not be used in any manner that
 competes with the business of Gaussian, Inc. or will provide
 assistance to any competitor of Gaussian, Inc.  The licensee
 of this program is prohibited from giving any competitor of
 Gaussian, Inc. access to this program.  By using this program,
 the user acknowledges that Gaussian, Inc. is engaged in the
 business of creating and licensing software in the field of
 computational chemistry and represents and warrants to the
 licensee that it is not a competitor of Gaussian, Inc. and that
 it will not use this program in any manner prohibited above.
 ---------------------------------------------------------------
  

 Cite this work as:
 Gaussian 16, Revision A.03,
 M. J. Frisch, G. W. Trucks, H. B. Schlegel, G. E. Scuseria, 
 M. A. Robb, J. R. Cheeseman, G. Scalmani, V. Barone, 
 G. A. Petersson, H. Nakatsuji, X. Li, M. Caricato, A. V. Marenich, 
 J. Bloino, B. G. Janesko, R. Gomperts, B. Mennucci, H. P. Hratchian, 
 J. V. Ortiz, A. F. Izmaylov, J. L. Sonnenberg, D. Williams-Young, 
 F. Ding, F. Lipparini, F. Egidi, J. Goings, B. Peng, A. Petrone, 
 T. Henderson, D. Ranasinghe, V. G. Zakrzewski, J. Gao, N. Rega, 
 G. Zheng, W. Liang, M. Hada, M. Ehara, K. Toyota, R. Fukuda, 
 J. Hasegawa, M. Ishida, T. Nakajima, Y. Honda, O. Kitao, H. Nakai, 
 T. Vreven, K. Throssell, J. A. Montgomery, Jr., J. E. Peralta, 
 F. Ogliaro, M. J. Bearpark, J. J. Heyd, E. N. Brothers, K. N. Kudin, 
 V. N. Staroverov, T. A. Keith, R. Kobayashi, J. Normand, 
 K. Raghavachari, A. P. Rendell, J. C. Burant, S. S. Iyengar, 
 J. Tomasi, M. Cossi, J. M. Millam, M. Klene, C. Adamo, R. Cammi, 
 J. W. Ochterski, R. L. Martin, K. Morokuma, O. Farkas, 
 J. B. Foresman, and D. J. Fox, Gaussian, Inc., Wallingford CT, 2016.
 
 ******************************************
 Gaussian 16:  ES64L-G16RevA.03 25-Dec-2016
                 2-Aug-2025 
 ******************************************
 %cpu=112-127
 SetSPE:  set environment variable "MP_BIND" = "yes"
 SetSPE:  set environment variable "MP_BLIST" = "112,113,114,115,116,117,118,119,120,121,122,123,124,125,126,127"
 Will use up to   16 processors via shared memory.
 %mem=100GB
 %oldchk=C.chk
 %chk=C_sp_sol.chk
 Copying data from "C.chk" to current chk file "C_sp_sol.chk"
 IOpt=  2 FromEx=T IUOpen= 4 IOptOp= 5 NList=   0 IFRang= 0 IUIn= 4 IUOut= 2.
 -----------------------------------------------------
 # m062x/def2tzvp scrf=solvent=water geom=check em=gd3
 -----------------------------------------------------
 1/29=2,38=1,172=1/1;
 2/12=2,40=1/2;
 3/5=44,7=101,11=2,14=-4,25=1,30=1,70=2201,72=1,74=-55,124=31/1,2,3;
 4//1;
 5/5=2,38=5,53=1/2;
 6/7=2,8=2,9=2,10=2,28=1/1;
 99/5=1,9=1/99;
 ----
 C sp
 ----
 Structure from the checkpoint file:  "C_sp_sol.chk"
 Charge =  0 Multiplicity = 3
 No Z-Matrix found in chk file; cartesian coordinates used.
  C                                                 0.161016940000      0.474576260000      0.000000000000
 Recover connectivity data from disk.
                          Input orientation:                          
 ---------------------------------------------------------------------
 Center     Atomic      Atomic             Coordinates (Angstroms)
 Number     Number       Type             X           Y           Z
 ---------------------------------------------------------------------
      1          6           0        0.161017    0.474576    0.000000
 ---------------------------------------------------------------------
 Stoichiometry    C(3)
 Framework group  OH[O(C)]
 Deg. of freedom     0
 Full point group                 OH      NOp  48
 Largest Abelian subgroup         D2H     NOp   8
 Largest concise Abelian subgroup C1      NOp   1
                         Standard orientation:                         
 ---------------------------------------------------------------------
 Center     Atomic      Atomic             Coordinates (Angstroms)
 Number     Number       Type             X           Y           Z
 ---------------------------------------------------------------------
      1          6           0        0.000000    0.000000    0.000000
 ---------------------------------------------------------------------
 Standard basis: def2TZVP (5D, 7F)
 There are    11 symmetry adapted cartesian basis functions of AG  symmetry.
 There are     2 symmetry adapted cartesian basis functions of B1G symmetry.
 There are     2 symmetry adapted cartesian basis functions of B2G symmetry.
 There are     2 symmetry adapted cartesian basis functions of B3G symmetry.
 There are     1 symmetry adapted cartesian basis functions of AU  symmetry.
 There are     6 symmetry adapted cartesian basis functions of B1U symmetry.
 There are     6 symmetry adapted cartesian basis functions of B2U symmetry.
 There are     6 symmetry adapted cartesian basis functions of B3U symmetry.
 There are     9 symmetry adapted basis functions of AG  symmetry.
 There are     2 symmetry adapted basis functions of B1G symmetry.
 There are     2 symmetry adapted basis functions of B2G symmetry.
 There are     2 symmetry adapted basis functions of B3G symmetry.
 There are     1 symmetry adapted basis functions of AU  symmetry.
 There are     5 symmetry adapted basis functions of B1U symmetry.
 There are     5 symmetry adapted basis functions of B2U symmetry.
 There are     5 symmetry adapted basis functions of B3U symmetry.
    31 basis functions,    51 primitive gaussians,    36 cartesian basis functions
     4 alpha electrons        2 beta electrons
       nuclear repulsion energy         0.0000000000 Hartrees.
 NAtoms=    1 NActive=    1 NUniq=    1 SFac= 1.00D+00 NAtFMM=   60 NAOKFM=F Big=F
 Integral buffers will be    131072 words long.
 Raffenetti 2 integral format.
 Two-electron integral symmetry is turned on.
 Nuclear repulsion after empirical dispersion term =        0.0000000000 Hartrees.
 ------------------------------------------------------------------------------
 Polarizable Continuum Model (PCM)
 =================================
 Model                : PCM.
 Atomic radii         : UFF (Universal Force Field).
 Polarization charges : Total charges.
 Charge compensation  : None.
 Solution method      : On-the-fly selection.
 Cavity type          : Scaled VdW (van der Waals Surface) (Alpha=1.100).
 Cavity algorithm     : GePol (No added spheres)
                        Default sphere list used, NSphG=    1.
                        Lebedev-Laikov grids with approx.  5.0 points / Ang**2.
                        Smoothing algorithm: York/Karplus (Gamma=1.0000).
                        Polarization charges: spherical gaussians, with
                                              point-specific exponents (IZeta= 3).
                        Self-potential: point-specific (ISelfS= 7).
                        Self-field    : sphere-specific E.n sum rule (ISelfD= 2).
 Solvent              : Water, Eps=  78.355300 Eps(inf)=   1.777849
 ------------------------------------------------------------------------------
 Spheres list:
 ISph  on   Nord     Re0    Alpha      Xe            Ye            Ze
    1   C      1    1.9255  1.100      0.000000      0.000000      0.000000
 ------------------------------------------------------------------------------
 One-electron integrals computed using PRISM.
  48 Symmetry operations used in ECPInt.
 ECPInt:  NShTT=      66 NPrTT=     232 LenC2=      67 LenP2D=     232.
 LDataN:  DoStor=T MaxTD1= 6 Len=  172
 NBasis=    31 RedAO= T EigKep=  2.86D-02  NBF=     9     2     2     2     1     5     5     5
 NBsUse=    31 1.00D-06 EigRej= -1.00D+00 NBFU=     9     2     2     2     1     5     5     5
 ExpMin= 9.52D-02 ExpMax= 1.36D+04 ExpMxC= 4.63D+02 IAcc=3 IRadAn=         5 AccDes= 0.00D+00
 Harris functional with IExCor= 1009 and IRadAn=       5 diagonalized for initial guess.
 HarFok:  IExCor= 1009 AccDes= 0.00D+00 IRadAn=         5 IDoV= 1 UseB2=F ITyADJ=14
 ICtDFT=  3500011 ScaDFX=  1.000000  1.000000  1.000000  1.000000
 FoFCou: FMM=F IPFlag=           0 FMFlag=      100000 FMFlg1=           0
         NFxFlg=           0 DoJE=T BraDBF=F KetDBF=T FulRan=T
         wScrn=  0.000000 ICntrl=       500 IOpCl=  0 I1Cent=   200000004 NGrid=           0
         NMat0=    1 NMatS0=      1 NMatT0=    0 NMatD0=    1 NMtDS0=    0 NMtDT0=    0
 Petite list used in FoFCou.
 Initial guess orbital symmetries:
 Alpha Orbitals:
       Occupied  (A1G) (A1G) (T1U) (T1U)
       Virtual   (T1U) (A1G) (T1U) (T1U) (T1U) (T2G) (T2G) (T2G)
                 (EG) (EG) (A1G) (T1U) (T1U) (T1U) (T2U) (T2U)
                 (T2U) (A2U) (T1U) (T1U) (T1U) (T2G) (T2G) (T2G)
                 (EG) (EG) (A1G)
 Beta  Orbitals:
       Occupied  (A1G) (A1G)
       Virtual   (T1U) (T1U) (T1U) (A1G) (T1U) (T1U) (T1U) (T2G)
                 (T2G) (T2G) (EG) (EG) (A1G) (T1U) (T1U) (T1U)
                 (T2U) (T2U) (T2U) (A2U) (T1U) (T1U) (T1U) (T2G)
                 (T2G) (T2G) (EG) (EG) (A1G)
 Initial guess <Sx>= 0.0000 <Sy>= 0.0000 <Sz>= 1.0000 <S**2>= 2.0000 S= 1.0000
 Keep R1 and R2 ints in memory in symmetry-blocked form, NReq=13943490.
 Requested convergence on RMS density matrix=1.00D-08 within 128 cycles.
 Requested convergence on MAX density matrix=1.00D-06.
 Requested convergence on             energy=1.00D-06.
 No special actions if energy rises.
 Density matrix breaks symmetry, PCut= 1.00D-04
 Density has only Abelian symmetry.
 Inv3:  Mode=1 IEnd=      273612.
 Iteration    1 A*A^-1 deviation from unit magnitude is 3.55D-15 for    135.
 Iteration    1 A*A^-1 deviation from orthogonality  is 1.34D-15 for    127     31.
 Iteration    1 A^-1*A deviation from unit magnitude is 2.33D-15 for     52.
 Iteration    1 A^-1*A deviation from orthogonality  is 8.17D-16 for    211     59.
 Density matrix breaks symmetry, PCut= 1.00D-04
 Density has only Abelian symmetry.
 Density matrix breaks symmetry, PCut= 1.00D-04
 Density has only Abelian symmetry.
 Density matrix breaks symmetry, PCut= 1.00D-04
 Density has only Abelian symmetry.
 Density matrix breaks symmetry, PCut= 1.00D-04
 Density has only Abelian symmetry.
 Density matrix breaks symmetry, PCut= 1.00D-04
 Density has only Abelian symmetry.
 Density matrix breaks symmetry, PCut= 1.00D-04
 Density has only Abelian symmetry.
 Density matrix breaks symmetry, PCut= 1.00D-04
 Density has only Abelian symmetry.
 Density matrix breaks symmetry, PCut= 1.00D-04
 Density has only Abelian symmetry.
 Error on total polarization charges =  0.00813
 SCF Done:  E(UM062X) =  -37.8433884839     A.U. after    8 cycles
            NFock=  8  Conv=0.12D-08     -V/T= 2.0033
 <Sx>= 0.0000 <Sy>= 0.0000 <Sz>= 1.0000 <S**2>= 2.0035 S= 1.0012
 <L.S>= 0.000000000000E+00
 Annihilation of the first spin contaminant:
 S**2 before annihilation     2.0035,   after     2.0000
 SCF density gives NOpUse=  8 NOpAll= 48.

 **********************************************************************

            Population analysis using the SCF density.

 **********************************************************************

 Orbital symmetries:
 Alpha Orbitals:
       Occupied  (A1G) (?A) (?B) (?B)
       Virtual   (?B) (?A) (?B) (?B) (?B) (?A) (T2G) (T2G) (T2G)
                 (?A) (A1G) (?B) (?B) (?B) (?C) (?C) (?C) (A2U)
                 (?C) (?C) (?C) (EG) (T2G) (EG) (T2G) (T2G) (A1G)
 Beta  Orbitals:
       Occupied  (A1G) (?A)
       Virtual   (?B) (?B) (?B) (?A) (?B) (?B) (?B) (?A) (T2G)
                 (T2G) (?A) (T2G) (?A) (?B) (?B) (?B) (?B) (?B)
                 (?B) (?B) (A2U) (?B) (?B) (?A) (T2G) (T2G) (?A)
                 (T2G) (A1G)
 Unable to determine electronic state:  an orbital has unidentified symmetry.
 Alpha  occ. eigenvalues --  -10.66048  -0.66727  -0.32314  -0.32314
 Alpha virt. eigenvalues --   -0.09350   0.19909   0.28212   0.28212   0.29281
 Alpha virt. eigenvalues --    0.70437   0.70438   0.70805   0.70805   0.71612
 Alpha virt. eigenvalues --    1.24164   1.41114   1.41114   1.42459   2.64529
 Alpha virt. eigenvalues --    2.64529   2.65441   2.65441   2.65866   2.65866
 Alpha virt. eigenvalues --    2.65872   2.89391   2.89391   2.90209   2.90974
 Alpha virt. eigenvalues --    2.90974  21.29779
  Beta  occ. eigenvalues --  -10.64066  -0.53832
  Beta virt. eigenvalues --   -0.06410  -0.04117  -0.04117   0.14233   0.25723
  Beta virt. eigenvalues --    0.25723   0.26706   0.70830   0.71359   0.71359
  Beta virt. eigenvalues --    0.72181   0.72181   1.25516   1.41246   1.46348
  Beta virt. eigenvalues --    1.46348   2.62103   2.62466   2.62466   2.63055
  Beta virt. eigenvalues --    2.63055   2.64609   2.64609   2.94469   2.95705
  Beta virt. eigenvalues --    2.95705   3.00086   3.00086  21.30613
          Condensed to atoms (all electrons):
               1
     1  C    6.000000
          Atomic-Atomic Spin Densities.
               1
     1  C    2.000000
 Mulliken charges and spin densities:
               1          2
     1  C   -0.000000   2.000000
 Sum of Mulliken charges =  -0.00000   2.00000
 Mulliken charges and spin densities with hydrogens summed into heavy atoms:
               1          2
     1  C   -0.000000   2.000000
 Electronic spatial extent (au):  <R**2>=             13.9284
 Charge=             -0.0000 electrons
 Dipole moment (field-independent basis, Debye):
    X=              0.0000    Y=              0.0000    Z=              0.0000  Tot=              0.0000
 Quadrupole moment (field-independent basis, Debye-Ang):
   XX=             -4.9224   YY=             -6.9059   ZZ=             -6.9059
   XY=              0.0000   XZ=             -0.0000   YZ=              0.0000
 Traceless Quadrupole moment (field-independent basis, Debye-Ang):
   XX=              1.3223   YY=             -0.6612   ZZ=             -0.6612
   XY=              0.0000   XZ=             -0.0000   YZ=              0.0000
 Octapole moment (field-independent basis, Debye-Ang**2):
  XXX=              0.0000  YYY=              0.0000  ZZZ=              0.0000  XYY=              0.0000
  XXY=              0.0000  XXZ=              0.0000  XZZ=              0.0000  YZZ=              0.0000
  YYZ=              0.0000  XYZ=              0.0000
 Hexadecapole moment (field-independent basis, Debye-Ang**3):
 XXXX=             -5.0392 YYYY=             -9.2587 ZZZZ=             -9.2587 XXXY=              0.0000
 XXXZ=             -0.0000 YYYX=              0.0000 YYYZ=             -0.0000 ZZZX=             -0.0000
 ZZZY=              0.0000 XXYY=             -2.3847 XXZZ=             -2.3847 YYZZ=             -3.0862
 XXYZ=              0.0000 YYXZ=             -0.0000 ZZXY=              0.0000
 N-N= 0.000000000000D+00 E-N=-8.818819531611D+01  KE= 3.771723826458D+01
 Symmetry AG   KE= 3.515661248880D+01
 Symmetry B1G  KE= 4.033255639361D-36
 Symmetry B2G  KE= 4.033255639361D-36
 Symmetry B3G  KE=-3.667224809272D-53
 Symmetry AU   KE= 5.264264346061D-37
 Symmetry B1U  KE= 1.280312887890D+00
 Symmetry B2U  KE= 1.280312887890D+00
 Symmetry B3U  KE= 4.801983679814D-33
 Symmetry AG   SP= 5.129767053844D-16
 Symmetry B1G  SP=-1.300843943580D-36
 Symmetry B2G  SP=-1.300843943580D-36
 Symmetry B3G  SP=-6.184078792890D-53
 Symmetry AU   SP= 1.537235901901D-37
 Symmetry B1U  SP= 1.000000000000D+00
 Symmetry B2U  SP= 1.000000000000D+00
 Symmetry B3U  SP= 3.749860614083D-33
                          Isotropic Fermi Contact Couplings
        Atom                 a.u.       MegaHertz       Gauss      10(-4) cm-1
     1  C(13)              0.16189      90.99604      32.46965      30.35301
 --------------------------------------------------------
       Center         ----  Spin Dipole Couplings  ----
                      3XX-RR        3YY-RR        3ZZ-RR
 --------------------------------------------------------
     1   Atom       -1.407993      0.703996      0.703996
 --------------------------------------------------------
                        XY            XZ            YZ
 --------------------------------------------------------
     1   Atom        0.000000      0.000000      0.000000
 --------------------------------------------------------


 ---------------------------------------------------------------------------------
              Anisotropic Spin Dipole Couplings in Principal Axis System
 ---------------------------------------------------------------------------------

       Atom             a.u.   MegaHertz   Gauss  10(-4) cm-1        Axes

              Baa    -1.4080  -188.939   -67.418   -63.023  1.0000  0.0000  0.0000
     1 C(13)  Bbb     0.7040    94.470    33.709    31.512  0.0000  0.0000  1.0000
              Bcc     0.7040    94.470    33.709    31.512 -0.0000  1.0000  0.0000
 

 ---------------------------------------------------------------------------------

 1\1\GINC-NODE01\SP\UM062X\def2TZVP\C1(3)\HONGCHANG\02-Aug-2025\0\\# m0
 62x/def2tzvp scrf=solvent=water geom=check em=gd3\\C sp\\0,3\C,0.16101
 694,0.47457626,0.\\Version=ES64L-G16RevA.03\HF=-37.8433885\S2=2.003477
 \S2-1=0.\S2A=2.\RMSD=1.238e-09\Dipole=0.,0.,0.\Quadrupole=-0.491561,-0
 .491561,0.9831221,0.,0.,0.\PG=OH [O(C1)]\\@


 OF ALL THE WONDERS OF THE UNIVERSE, THE GREATEST IS MAN.

                                    -- ARISTOTLE
 Job cpu time:       0 days  0 hours  0 minutes 18.2 seconds.
 Elapsed time:       0 days  0 hours  0 minutes  1.2 seconds.
 File lengths (MBytes):  RWF=      6 Int=      0 D2E=      0 Chk=      1 Scr=      1
 Normal termination of Gaussian 16 at Sat Aug  2 20:34:06 2025.
