 Entering Gaussian System, Link 0=g16
 Initial command:
 /home/hongchang/software/g16/l1.exe "/home/hongchang/software/g16/scratch/Gau-824.inp" -scrdir="/home/hongchang/software/g16/scratch/"
 Entering Link 1 = /home/hongchang/software/g16/l1.exe PID=       825.
  
 Copyright (c) 1988,1990,1992,1993,1995,1998,2003,2009,2016,
            Gaussian, Inc.  All Rights Reserved.
  
 This is part of the Gaussian(R) 16 program.  It is based on
 the Gaussian(R) 09 system (copyright 2009, Gaussian, Inc.),
 the Gaussian(R) 03 system (copyright 2003, Gaussian, Inc.),
 the Gaussian(R) 98 system (copyright 1998, Gaussian, Inc.),
 the Gaussian(R) 94 system (copyright 1995, Gaussian, Inc.),
 the Gaussian 92(TM) system (copyright 1992, Gaussian, Inc.),
 the Gaussian 90(TM) system (copyright 1990, Gaussian, Inc.),
 the Gaussian 88(TM) system (copyright 1988, Gaussian, Inc.),
 the Gaussian 86(TM) system (copyright 1986, Carnegie Mellon
 University), and the Gaussian 82(TM) system (copyright 1983,
 Carnegie Mellon University). Gaussian is a federally registered
 trademark of Gaussian, Inc.
  
 This software contains proprietary and confidential information,
 including trade secrets, belonging to Gaussian, Inc.
  
 This software is provided under written license and may be
 used, copied, transmitted, or stored only in accord with that
 written license.
  
 The following legend is applicable only to US Government
 contracts under FAR:
  
                    RESTRICTED RIGHTS LEGEND
  
 Use, reproduction and disclosure by the US Government is
 subject to restrictions as set forth in subparagraphs (a)
 and (c) of the Commercial Computer Software - Restricted
 Rights clause in FAR 52.227-19.
  
 Gaussian, Inc.
 340 Quinnipiac St., Bldg. 40, Wallingford CT 06492
  
  
 ---------------------------------------------------------------
 Warning -- This program may not be used in any manner that
 competes with the business of Gaussian, Inc. or will provide
 assistance to any competitor of Gaussian, Inc.  The licensee
 of this program is prohibited from giving any competitor of
 Gaussian, Inc. access to this program.  By using this program,
 the user acknowledges that Gaussian, Inc. is engaged in the
 business of creating and licensing software in the field of
 computational chemistry and represents and warrants to the
 licensee that it is not a competitor of Gaussian, Inc. and that
 it will not use this program in any manner prohibited above.
 ---------------------------------------------------------------
  

 Cite this work as:
 Gaussian 16, Revision A.03,
 M. J. Frisch, G. W. Trucks, H. B. Schlegel, G. E. Scuseria, 
 M. A. Robb, J. R. Cheeseman, G. Scalmani, V. Barone, 
 G. A. Petersson, H. Nakatsuji, X. Li, M. Caricato, A. V. Marenich, 
 J. Bloino, B. G. Janesko, R. Gomperts, B. Mennucci, H. P. Hratchian, 
 J. V. Ortiz, A. F. Izmaylov, J. L. Sonnenberg, D. Williams-Young, 
 F. Ding, F. Lipparini, F. Egidi, J. Goings, B. Peng, A. Petrone, 
 T. Henderson, D. Ranasinghe, V. G. Zakrzewski, J. Gao, N. Rega, 
 G. Zheng, W. Liang, M. Hada, M. Ehara, K. Toyota, R. Fukuda, 
 J. Hasegawa, M. Ishida, T. Nakajima, Y. Honda, O. Kitao, H. Nakai, 
 T. Vreven, K. Throssell, J. A. Montgomery, Jr., J. E. Peralta, 
 F. Ogliaro, M. J. Bearpark, J. J. Heyd, E. N. Brothers, K. N. Kudin, 
 V. N. Staroverov, T. A. Keith, R. Kobayashi, J. Normand, 
 K. Raghavachari, A. P. Rendell, J. C. Burant, S. S. Iyengar, 
 J. Tomasi, M. Cossi, J. M. Millam, M. Klene, C. Adamo, R. Cammi, 
 J. W. Ochterski, R. L. Martin, K. Morokuma, O. Farkas, 
 J. B. Foresman, and D. J. Fox, Gaussian, Inc., Wallingford CT, 2016.
 
 ******************************************
 Gaussian 16:  ES64L-G16RevA.03 25-Dec-2016
                23-Jul-2025 
 ******************************************
 %nproc=128
 Will use up to  128 processors via shared memory.
 %mem=1024GB
 %chk=02.chk
 ---------------------------------------------------------------
 # opt freq b3lyp/6-311g(d,p) em=gd3bj scrf(solvent=Cis-Decalin)
 ---------------------------------------------------------------
 1/18=20,19=15,26=3,38=1/1,3;
 2/9=110,12=2,17=6,18=5,40=1/2;
 3/5=4,6=6,7=101,11=2,25=1,30=1,70=2201,71=1,72=99,74=-5,124=41/1,2,3;
 4//1;
 5/5=2,38=5,53=99/2;
 6/7=2,8=2,9=2,10=2,28=1/1;
 7//1,2,3,16;
 1/18=20,19=15,26=3/3(2);
 2/9=110/2;
 99//99;
 2/9=110/2;
 3/5=4,6=6,7=101,11=2,25=1,30=1,70=2205,71=1,72=99,74=-5,124=41/1,2,3;
 4/5=5,16=3,69=1/1;
 5/5=2,38=5,53=99/2;
 7//1,2,3,16;
 1/18=20,19=15,26=3/3(-5);
 2/9=110/2;
 6/7=2,8=2,9=2,10=2,19=2,28=1/1;
 99/9=1/99;
 --
 02
 --
 Symbolic Z-matrix:
 Charge =  0 Multiplicity = 1
 C                     1.04247   0.67568   1.28828 
 C                     1.00472  -0.66359   1.30516 
 C                     1.02638  -1.14251  -0.14012 
 C                    -0.35433  -0.77174  -0.79428 
 C                    -0.3075    0.80112  -0.81809 
 C                     1.09793   1.11681  -0.16564 
 C                    -1.54382   1.2141   -0.06607 
 C                    -2.25368   0.16858   0.36614 
 C                    -1.64578  -1.15906  -0.02412 
 C                     1.92336  -0.04678  -0.76972 
 H                     0.94182   1.3435    2.13678 
 H                     0.87558  -1.30255   2.17193 
 H                     1.32677  -2.18155  -0.29647 
 H                    -0.37721  -1.17595  -1.81098 
 H                    -0.30526   1.20148  -1.84076 
 H                     1.45599   2.13243  -0.34935 
 H                    -1.80908   2.25451   0.10212 
 H                    -3.17419   0.23858   0.93998 
 H                    -2.33348  -1.74346  -0.65007 
 H                    -1.43684  -1.77988   0.85778 
 H                     2.95294  -0.07517  -0.40157 
 H                     1.92353  -0.05852  -1.86616 
 

 GradGradGradGradGradGradGradGradGradGradGradGradGradGradGradGradGradGrad
 Berny optimization.
 Initialization pass.
                           ----------------------------
                           !    Initial Parameters    !
                           ! (Angstroms and Degrees)  !
 --------------------------                            --------------------------
 ! Name  Definition              Value          Derivative Info.                !
 --------------------------------------------------------------------------------
 ! R1    R(1,2)                  1.3399         estimate D2E/DX2                !
 ! R2    R(1,6)                  1.5204         estimate D2E/DX2                !
 ! R3    R(1,11)                 1.0845         estimate D2E/DX2                !
 ! R4    R(2,3)                  1.5227         estimate D2E/DX2                !
 ! R5    R(2,12)                 1.0845         estimate D2E/DX2                !
 ! R6    R(3,4)                  1.5722         estimate D2E/DX2                !
 ! R7    R(3,10)                 1.5497         estimate D2E/DX2                !
 ! R8    R(3,13)                 1.0928         estimate D2E/DX2                !
 ! R9    R(4,5)                  1.5737         estimate D2E/DX2                !
 ! R10   R(4,9)                  1.5527         estimate D2E/DX2                !
 ! R11   R(4,14)                 1.0943         estimate D2E/DX2                !
 ! R12   R(5,6)                  1.5813         estimate D2E/DX2                !
 ! R13   R(5,7)                  1.5049         estimate D2E/DX2                !
 ! R14   R(5,15)                 1.0982         estimate D2E/DX2                !
 ! R15   R(6,10)                 1.5493         estimate D2E/DX2                !
 ! R16   R(6,16)                 1.0924         estimate D2E/DX2                !
 ! R17   R(7,8)                  1.3356         estimate D2E/DX2                !
 ! R18   R(7,17)                 1.0868         estimate D2E/DX2                !
 ! R19   R(8,9)                  1.5114         estimate D2E/DX2                !
 ! R20   R(8,18)                 1.087          estimate D2E/DX2                !
 ! R21   R(9,19)                 1.0983         estimate D2E/DX2                !
 ! R22   R(9,20)                 1.0985         estimate D2E/DX2                !
 ! R23   R(10,21)                1.0938         estimate D2E/DX2                !
 ! R24   R(10,22)                1.0965         estimate D2E/DX2                !
 ! A1    A(2,1,6)              107.643          estimate D2E/DX2                !
 ! A2    A(2,1,11)             127.0878         estimate D2E/DX2                !
 ! A3    A(6,1,11)             124.9544         estimate D2E/DX2                !
 ! A4    A(1,2,3)              107.5779         estimate D2E/DX2                !
 ! A5    A(1,2,12)             127.0346         estimate D2E/DX2                !
 ! A6    A(3,2,12)             125.0965         estimate D2E/DX2                !
 ! A7    A(2,3,4)              107.9541         estimate D2E/DX2                !
 ! A8    A(2,3,10)              99.8731         estimate D2E/DX2                !
 ! A9    A(2,3,13)             116.0235         estimate D2E/DX2                !
 ! A10   A(4,3,10)              99.935          estimate D2E/DX2                !
 ! A11   A(4,3,13)             113.959          estimate D2E/DX2                !
 ! A12   A(10,3,13)            117.0671         estimate D2E/DX2                !
 ! A13   A(3,4,5)              102.4658         estimate D2E/DX2                !
 ! A14   A(3,4,9)              117.725          estimate D2E/DX2                !
 ! A15   A(3,4,14)             108.5307         estimate D2E/DX2                !
 ! A16   A(5,4,9)              106.3533         estimate D2E/DX2                !
 ! A17   A(5,4,14)             110.8376         estimate D2E/DX2                !
 ! A18   A(9,4,14)             110.5662         estimate D2E/DX2                !
 ! A19   A(4,5,6)              102.6932         estimate D2E/DX2                !
 ! A20   A(4,5,7)              104.0205         estimate D2E/DX2                !
 ! A21   A(4,5,15)             112.2403         estimate D2E/DX2                !
 ! A22   A(6,5,7)              117.9822         estimate D2E/DX2                !
 ! A23   A(6,5,15)             108.0364         estimate D2E/DX2                !
 ! A24   A(7,5,15)             111.5289         estimate D2E/DX2                !
 ! A25   A(1,6,5)              107.7112         estimate D2E/DX2                !
 ! A26   A(1,6,10)             100.0432         estimate D2E/DX2                !
 ! A27   A(1,6,16)             116.2641         estimate D2E/DX2                !
 ! A28   A(5,6,10)              99.3641         estimate D2E/DX2                !
 ! A29   A(5,6,16)             114.0489         estimate D2E/DX2                !
 ! A30   A(10,6,16)            117.2611         estimate D2E/DX2                !
 ! A31   A(5,7,8)              112.5527         estimate D2E/DX2                !
 ! A32   A(5,7,17)             122.7233         estimate D2E/DX2                !
 ! A33   A(8,7,17)             124.7228         estimate D2E/DX2                !
 ! A34   A(7,8,9)              112.9733         estimate D2E/DX2                !
 ! A35   A(7,8,18)             124.7863         estimate D2E/DX2                !
 ! A36   A(9,8,18)             122.2403         estimate D2E/DX2                !
 ! A37   A(4,9,8)              104.0916         estimate D2E/DX2                !
 ! A38   A(4,9,19)             111.7664         estimate D2E/DX2                !
 ! A39   A(4,9,20)             112.393          estimate D2E/DX2                !
 ! A40   A(8,9,19)             111.2664         estimate D2E/DX2                !
 ! A41   A(8,9,20)             111.4459         estimate D2E/DX2                !
 ! A42   A(19,9,20)            106.0167         estimate D2E/DX2                !
 ! A43   A(3,10,6)              93.6838         estimate D2E/DX2                !
 ! A44   A(3,10,21)            112.9383         estimate D2E/DX2                !
 ! A45   A(3,10,22)            113.5014         estimate D2E/DX2                !
 ! A46   A(6,10,21)            112.9401         estimate D2E/DX2                !
 ! A47   A(6,10,22)            113.4542         estimate D2E/DX2                !
 ! A48   A(21,10,22)           109.6413         estimate D2E/DX2                !
 ! D1    D(6,1,2,3)             -0.3136         estimate D2E/DX2                !
 ! D2    D(6,1,2,12)          -174.3292         estimate D2E/DX2                !
 ! D3    D(11,1,2,3)           173.4529         estimate D2E/DX2                !
 ! D4    D(11,1,2,12)           -0.5627         estimate D2E/DX2                !
 ! D5    D(2,1,6,5)             69.926          estimate D2E/DX2                !
 ! D6    D(2,1,6,10)           -33.3723         estimate D2E/DX2                !
 ! D7    D(2,1,6,16)          -160.6816         estimate D2E/DX2                !
 ! D8    D(11,1,6,5)          -104.0077         estimate D2E/DX2                !
 ! D9    D(11,1,6,10)          152.694          estimate D2E/DX2                !
 ! D10   D(11,1,6,16)           25.3847         estimate D2E/DX2                !
 ! D11   D(1,2,3,4)            -70.0579         estimate D2E/DX2                !
 ! D12   D(1,2,3,10)            33.8572         estimate D2E/DX2                !
 ! D13   D(1,2,3,13)           160.6527         estimate D2E/DX2                !
 ! D14   D(12,2,3,4)           104.1038         estimate D2E/DX2                !
 ! D15   D(12,2,3,10)         -151.981          estimate D2E/DX2                !
 ! D16   D(12,2,3,13)          -25.1856         estimate D2E/DX2                !
 ! D17   D(2,3,4,5)             66.7887         estimate D2E/DX2                !
 ! D18   D(2,3,4,9)            -49.4394         estimate D2E/DX2                !
 ! D19   D(2,3,4,14)          -175.9319         estimate D2E/DX2                !
 ! D20   D(10,3,4,5)           -37.0828         estimate D2E/DX2                !
 ! D21   D(10,3,4,9)          -153.3109         estimate D2E/DX2                !
 ! D22   D(10,3,4,14)           80.1966         estimate D2E/DX2                !
 ! D23   D(13,3,4,5)          -162.7695         estimate D2E/DX2                !
 ! D24   D(13,3,4,9)            81.0024         estimate D2E/DX2                !
 ! D25   D(13,3,4,14)          -45.4901         estimate D2E/DX2                !
 ! D26   D(2,3,10,6)           -50.5345         estimate D2E/DX2                !
 ! D27   D(2,3,10,21)           66.2965         estimate D2E/DX2                !
 ! D28   D(2,3,10,22)         -168.1098         estimate D2E/DX2                !
 ! D29   D(4,3,10,6)            59.8389         estimate D2E/DX2                !
 ! D30   D(4,3,10,21)          176.6699         estimate D2E/DX2                !
 ! D31   D(4,3,10,22)          -57.7364         estimate D2E/DX2                !
 ! D32   D(13,3,10,6)         -176.6239         estimate D2E/DX2                !
 ! D33   D(13,3,10,21)         -59.7929         estimate D2E/DX2                !
 ! D34   D(13,3,10,22)          65.8008         estimate D2E/DX2                !
 ! D35   D(3,4,5,6)             -0.2255         estimate D2E/DX2                !
 ! D36   D(3,4,5,7)           -123.7272         estimate D2E/DX2                !
 ! D37   D(3,4,5,15)           115.5591         estimate D2E/DX2                !
 ! D38   D(9,4,5,6)            123.9285         estimate D2E/DX2                !
 ! D39   D(9,4,5,7)              0.4268         estimate D2E/DX2                !
 ! D40   D(9,4,5,15)          -120.2869         estimate D2E/DX2                !
 ! D41   D(14,4,5,6)          -115.8459         estimate D2E/DX2                !
 ! D42   D(14,4,5,7)           120.6524         estimate D2E/DX2                !
 ! D43   D(14,4,5,15)           -0.0613         estimate D2E/DX2                !
 ! D44   D(3,4,9,8)            113.3047         estimate D2E/DX2                !
 ! D45   D(3,4,9,19)          -126.5033         estimate D2E/DX2                !
 ! D46   D(3,4,9,20)            -7.4352         estimate D2E/DX2                !
 ! D47   D(5,4,9,8)             -0.7968         estimate D2E/DX2                !
 ! D48   D(5,4,9,19)           119.3952         estimate D2E/DX2                !
 ! D49   D(5,4,9,20)          -121.5367         estimate D2E/DX2                !
 ! D50   D(14,4,9,8)          -121.1978         estimate D2E/DX2                !
 ! D51   D(14,4,9,19)           -1.0059         estimate D2E/DX2                !
 ! D52   D(14,4,9,20)          118.0623         estimate D2E/DX2                !
 ! D53   D(4,5,6,1)            -66.3776         estimate D2E/DX2                !
 ! D54   D(4,5,6,10)            37.4029         estimate D2E/DX2                !
 ! D55   D(4,5,6,16)           162.9906         estimate D2E/DX2                !
 ! D56   D(7,5,6,1)             47.2558         estimate D2E/DX2                !
 ! D57   D(7,5,6,10)           151.0363         estimate D2E/DX2                !
 ! D58   D(7,5,6,16)           -83.3759         estimate D2E/DX2                !
 ! D59   D(15,5,6,1)           174.8477         estimate D2E/DX2                !
 ! D60   D(15,5,6,10)          -81.3718         estimate D2E/DX2                !
 ! D61   D(15,5,6,16)           44.216          estimate D2E/DX2                !
 ! D62   D(4,5,7,8)              0.1663         estimate D2E/DX2                !
 ! D63   D(4,5,7,17)           179.7842         estimate D2E/DX2                !
 ! D64   D(6,5,7,8)           -112.7342         estimate D2E/DX2                !
 ! D65   D(6,5,7,17)            66.8837         estimate D2E/DX2                !
 ! D66   D(15,5,7,8)           121.3565         estimate D2E/DX2                !
 ! D67   D(15,5,7,17)          -59.0256         estimate D2E/DX2                !
 ! D68   D(1,6,10,3)            50.4288         estimate D2E/DX2                !
 ! D69   D(1,6,10,21)          -66.4006         estimate D2E/DX2                !
 ! D70   D(1,6,10,22)          168.0433         estimate D2E/DX2                !
 ! D71   D(5,6,10,3)           -59.5902         estimate D2E/DX2                !
 ! D72   D(5,6,10,21)         -176.4196         estimate D2E/DX2                !
 ! D73   D(5,6,10,22)           58.0244         estimate D2E/DX2                !
 ! D74   D(16,6,10,3)          177.0703         estimate D2E/DX2                !
 ! D75   D(16,6,10,21)          60.2409         estimate D2E/DX2                !
 ! D76   D(16,6,10,22)         -65.3152         estimate D2E/DX2                !
 ! D77   D(5,7,8,9)             -0.7333         estimate D2E/DX2                !
 ! D78   D(5,7,8,18)           179.2411         estimate D2E/DX2                !
 ! D79   D(17,7,8,9)           179.6578         estimate D2E/DX2                !
 ! D80   D(17,7,8,18)           -0.3678         estimate D2E/DX2                !
 ! D81   D(7,8,9,4)              0.9647         estimate D2E/DX2                !
 ! D82   D(7,8,9,19)          -119.5637         estimate D2E/DX2                !
 ! D83   D(7,8,9,20)           122.3375         estimate D2E/DX2                !
 ! D84   D(18,8,9,4)          -179.0104         estimate D2E/DX2                !
 ! D85   D(18,8,9,19)           60.4611         estimate D2E/DX2                !
 ! D86   D(18,8,9,20)          -57.6376         estimate D2E/DX2                !
 --------------------------------------------------------------------------------
 Trust Radius=3.00D-01 FncErr=1.00D-07 GrdErr=1.00D-06 EigMax=2.50D+02 EigMin=1.00D-04
 Number of steps in this run=    132 maximum allowed number of steps=    132.
 GradGradGradGradGradGradGradGradGradGradGradGradGradGradGradGradGradGrad

                          Input orientation:                          
 ---------------------------------------------------------------------
 Center     Atomic      Atomic             Coordinates (Angstroms)
 Number     Number       Type             X           Y           Z
 ---------------------------------------------------------------------
      1          6           0        1.042467    0.675677    1.288278
      2          6           0        1.004718   -0.663592    1.305162
      3          6           0        1.026383   -1.142507   -0.140119
      4          6           0       -0.354332   -0.771742   -0.794275
      5          6           0       -0.307498    0.801117   -0.818088
      6          6           0        1.097929    1.116806   -0.165635
      7          6           0       -1.543821    1.214098   -0.066065
      8          6           0       -2.253675    0.168577    0.366135
      9          6           0       -1.645781   -1.159061   -0.024115
     10          6           0        1.923357   -0.046783   -0.769715
     11          1           0        0.941823    1.343500    2.136784
     12          1           0        0.875579   -1.302552    2.171926
     13          1           0        1.326766   -2.181548   -0.296473
     14          1           0       -0.377208   -1.175952   -1.810977
     15          1           0       -0.305263    1.201477   -1.840757
     16          1           0        1.455992    2.132426   -0.349345
     17          1           0       -1.809084    2.254510    0.102118
     18          1           0       -3.174193    0.238576    0.939980
     19          1           0       -2.333484   -1.743459   -0.650071
     20          1           0       -1.436844   -1.779882    0.857779
     21          1           0        2.952939   -0.075168   -0.401571
     22          1           0        1.923531   -0.058517   -1.866156
 ---------------------------------------------------------------------
                    Distance matrix (angstroms):
                    1          2          3          4          5
     1  C    0.000000
     2  C    1.339907   0.000000
     3  C    2.312222   1.522717   0.000000
     4  C    2.895358   2.503268   1.572183   0.000000
     5  C    2.504979   2.894041   2.452867   1.573736   0.000000
     6  C    1.520373   2.311222   2.260590   2.463912   1.581322
     7  C    2.968674   3.449788   3.487839   2.426671   1.504854
     8  C    3.460065   3.491619   3.568475   2.416248   2.364338
     9  C    3.509318   3.006262   2.674732   1.552740   2.502737
    10  C    2.352286   2.351482   1.549698   2.390405   2.387046
    11  H    1.084472   2.173469   3.372190   3.839970   3.253652
    12  H    2.173034   1.084540   2.322479   3.254656   3.842561
    13  H    3.279634   2.230054   1.092832   2.249767   3.440813
    14  H    3.879354   3.447108   2.182419   1.094345   2.213479
    15  H    3.447275   3.884757   3.187430   2.234083   1.098246
    16  H    2.230455   3.280055   3.309611   3.451004   2.258761
    17  H    3.468578   4.228489   4.431509   3.475345   2.283395
    18  H    4.253539   4.290753   4.551796   3.461214   3.409574
    19  H    4.583281   4.016546   3.451072   2.209541   3.256949
    20  H    3.515975   2.721669   2.733045   2.217535   3.278034
    21  H    2.658808   2.656077   2.217924   3.402569   3.401737
    22  H    3.356452   3.356723   2.226907   2.616539   2.610538
                    6          7          8          9         10
     6  C    0.000000
     7  C    2.645415   0.000000
     8  C    3.523516   1.335591   0.000000
     9  C    3.567568   2.375719   1.511441   0.000000
    10  C    1.549253   3.755831   4.334066   3.812063   0.000000
    11  H    2.318813   3.323810   3.837558   4.198570   3.368090
    12  H    3.371487   4.146761   3.900940   3.346706   3.365716
    13  H    3.308871   4.452389   4.333785   3.155265   2.266517
    14  H    3.184324   3.180887   3.173122   2.191447   2.766197
    15  H    2.186813   2.164190   3.119866   3.266392   2.769843
    16  H    1.092448   3.149992   4.257962   4.534386   2.268059
    17  H    3.133175   1.086788   2.149066   3.419805   4.470700
    18  H    4.499411   2.149856   1.086992   2.284494   5.384190
    19  H    4.493372   3.116372   2.166778   1.098307   4.584072
    20  H    3.982870   3.135099   2.169198   1.098549   4.116226
    21  H    2.217550   4.689949   5.268549   4.739781   1.093789
    22  H    2.225932   4.108821   4.741703   4.164649   1.096504
                   11         12         13         14         15
    11  H    0.000000
    12  H    2.647114   0.000000
    13  H    4.300568   2.658796   0.000000
    14  H    4.865419   4.177202   2.491681   0.000000
    15  H    4.170878   4.875056   4.061181   2.378704   0.000000
    16  H    2.658498   4.300321   4.316233   4.054917   2.488573
    17  H    3.540804   4.913676   5.447113   4.180702   2.673036
    18  H    4.426600   4.504822   5.257799   4.170345   4.109798
    19  H    5.293724   4.296062   3.703294   2.344522   3.768828
    20  H    4.129095   2.702245   3.021783   2.934249   4.177448
    21  H    3.535598   3.527716   2.663141   3.779951   3.783776
    22  H    4.353496   4.353382   2.706897   2.558340   2.560420
                   16         17         18         19         20
    16  H    0.000000
    17  H    3.298400   0.000000
    18  H    5.166008   2.574786   0.000000
    19  H    5.428909   4.101773   2.676475   0.000000
    20  H    5.013163   4.121396   2.664453   1.754680   0.000000
    21  H    2.667780   5.325220   6.280123   5.548983   4.874649
    22  H    2.705465   4.812132   5.826616   4.737095   4.655646
                   21         22
    21  H    0.000000
    22  H    1.790242   0.000000
 Stoichiometry    C10H12
 Framework group  C1[X(C10H12)]
 Deg. of freedom    60
 Full point group                 C1      NOp   1
 Largest Abelian subgroup         C1      NOp   1
 Largest concise Abelian subgroup C1      NOp   1
                         Standard orientation:                         
 ---------------------------------------------------------------------
 Center     Atomic      Atomic             Coordinates (Angstroms)
 Number     Number       Type             X           Y           Z
 ---------------------------------------------------------------------
      1          6           0        1.052945    0.673076    1.280116
      2          6           0        1.016086   -0.666251    1.294100
      3          6           0        1.026115   -1.141695   -0.152454
      4          6           0       -0.360148   -0.770166   -0.794328
      5          6           0       -0.314391    0.802772   -0.814756
      6          6           0        1.096184    1.117713   -0.173143
      7          6           0       -1.544710    1.213237   -0.051591
      8          6           0       -2.250395    0.166274    0.383933
      9          6           0       -1.644993   -1.160075   -0.014491
     10          6           0        1.917260   -0.043949   -0.786786
     11          1           0        0.958919    1.338809    2.131020
     12          1           0        0.894447   -1.307358    2.160364
     13          1           0        1.325782   -2.180185   -0.313766
     14          1           0       -0.391170   -1.171956   -1.811773
     15          1           0       -0.320803    1.205578   -1.836446
     16          1           0        1.452154    2.133977   -0.357360
     17          1           0       -1.809161    2.253089    0.121264
     18          1           0       -3.166195    0.234367    0.965504
     19          1           0       -2.337501   -1.743372   -0.636161
     20          1           0       -1.428453   -1.782882    0.864163
     21          1           0        2.949855   -0.072618   -0.427202
     22          1           0        1.908411   -0.053060   -1.883216
 ---------------------------------------------------------------------
 Rotational constants (GHZ):           2.4681166           1.4520529           1.3353873
 Standard basis: 6-311G(d,p) (5D, 7F)
 There are   262 symmetry adapted cartesian basis functions of A   symmetry.
 There are   252 symmetry adapted basis functions of A   symmetry.
   252 basis functions,   416 primitive gaussians,   262 cartesian basis functions
    36 alpha electrons       36 beta electrons
       nuclear repulsion energy       533.5046744965 Hartrees.
 NAtoms=   22 NActive=   22 NUniq=   22 SFac= 1.00D+00 NAtFMM=   60 NAOKFM=F Big=F
 Integral buffers will be    131072 words long.
 Raffenetti 2 integral format.
 Two-electron integral symmetry is turned on.
 Nuclear repulsion after empirical dispersion term =      533.4600963620 Hartrees.
 ------------------------------------------------------------------------------
 Polarizable Continuum Model (PCM)
 =================================
 Model                : PCM.
 Atomic radii         : UFF (Universal Force Field).
 Polarization charges : Total charges.
 Charge compensation  : None.
 Solution method      : On-the-fly selection.
 Cavity type          : Scaled VdW (van der Waals Surface) (Alpha=1.100).
 Cavity algorithm     : GePol (No added spheres)
                        Default sphere list used, NSphG=   22.
                        Lebedev-Laikov grids with approx.  5.0 points / Ang**2.
                        Smoothing algorithm: York/Karplus (Gamma=1.0000).
                        Polarization charges: spherical gaussians, with
                                              point-specific exponents (IZeta= 3).
                        Self-potential: point-specific (ISelfS= 7).
                        Self-field    : sphere-specific E.n sum rule (ISelfD= 2).
 1st derivatives      : Analytical E(r).r(x)/FMM algorithm (CHGder, D1EAlg=3).
                        Cavity 1st derivative terms included.
 Solvent              : Cis-Decalin, Eps=   2.213900 Eps(inf)=   2.193361
 ------------------------------------------------------------------------------
 One-electron integrals computed using PRISM.
 NBasis=   252 RedAO= T EigKep=  4.07D-04  NBF=   252
 NBsUse=   252 1.00D-06 EigRej= -1.00D+00 NBFU=   252
 ExpMin= 1.03D-01 ExpMax= 4.56D+03 ExpMxC= 6.82D+02 IAcc=3 IRadAn=         5 AccDes= 0.00D+00
 Harris functional with IExCor=  402 and IRadAn=       5 diagonalized for initial guess.
 HarFok:  IExCor=  402 AccDes= 0.00D+00 IRadAn=         5 IDoV= 1 UseB2=F ITyADJ=14
 ICtDFT=  3500011 ScaDFX=  1.000000  1.000000  1.000000  1.000000
 FoFCou: FMM=F IPFlag=           0 FMFlag=      100000 FMFlg1=           0
         NFxFlg=           0 DoJE=T BraDBF=F KetDBF=T FulRan=T
         wScrn=  0.000000 ICntrl=       500 IOpCl=  0 I1Cent=   200000004 NGrid=           0
         NMat0=    1 NMatS0=      1 NMatT0=    0 NMatD0=    1 NMtDS0=    0 NMtDT0=    0
 Petite list used in FoFCou.
 Requested convergence on RMS density matrix=1.00D-08 within 128 cycles.
 Requested convergence on MAX density matrix=1.00D-06.
 Requested convergence on             energy=1.00D-06.
 No special actions if energy rises.
 Inv3:  Mode=1 IEnd=     7179627.
 Iteration    1 A*A^-1 deviation from unit magnitude is 5.55D-15 for   1543.
 Iteration    1 A*A^-1 deviation from orthogonality  is 2.16D-15 for   1359     94.
 Iteration    1 A^-1*A deviation from unit magnitude is 5.55D-15 for   1543.
 Iteration    1 A^-1*A deviation from orthogonality  is 1.45D-15 for   1544    684.
 Error on total polarization charges =  0.00649
 SCF Done:  E(RB3LYP) =  -388.370411428     A.U. after   12 cycles
            NFock= 12  Conv=0.51D-08     -V/T= 2.0050

 **********************************************************************

            Population analysis using the SCF density.

 **********************************************************************

 Orbital symmetries:
       Occupied  (A) (A) (A) (A) (A) (A) (A) (A) (A) (A) (A) (A)
                 (A) (A) (A) (A) (A) (A) (A) (A) (A) (A) (A) (A)
                 (A) (A) (A) (A) (A) (A) (A) (A) (A) (A) (A) (A)
       Virtual   (A) (A) (A) (A) (A) (A) (A) (A) (A) (A) (A) (A)
                 (A) (A) (A) (A) (A) (A) (A) (A) (A) (A) (A) (A)
                 (A) (A) (A) (A) (A) (A) (A) (A) (A) (A) (A) (A)
                 (A) (A) (A) (A) (A) (A) (A) (A) (A) (A) (A) (A)
                 (A) (A) (A) (A) (A) (A) (A) (A) (A) (A) (A) (A)
                 (A) (A) (A) (A) (A) (A) (A) (A) (A) (A) (A) (A)
                 (A) (A) (A) (A) (A) (A) (A) (A) (A) (A) (A) (A)
                 (A) (A) (A) (A) (A) (A) (A) (A) (A) (A) (A) (A)
                 (A) (A) (A) (A) (A) (A) (A) (A) (A) (A) (A) (A)
                 (A) (A) (A) (A) (A) (A) (A) (A) (A) (A) (A) (A)
                 (A) (A) (A) (A) (A) (A) (A) (A) (A) (A) (A) (A)
                 (A) (A) (A) (A) (A) (A) (A) (A) (A) (A) (A) (A)
                 (A) (A) (A) (A) (A) (A) (A) (A) (A) (A) (A) (A)
                 (A) (A) (A) (A) (A) (A) (A) (A) (A) (A) (A) (A)
                 (A) (A) (A) (A) (A) (A) (A) (A) (A) (A) (A) (A)
                 (A) (A) (A) (A) (A) (A) (A) (A) (A) (A) (A) (A)
                 (A) (A) (A) (A) (A) (A) (A) (A) (A) (A) (A) (A)
                 (A) (A) (A) (A) (A) (A) (A) (A) (A) (A) (A) (A)
 The electronic state is 1-A.
 Alpha  occ. eigenvalues --  -10.17554 -10.17485 -10.17245 -10.17105 -10.16504
 Alpha  occ. eigenvalues --  -10.16465 -10.16246 -10.16166 -10.16058 -10.15936
 Alpha  occ. eigenvalues --   -0.88633  -0.81492  -0.73231  -0.72594  -0.67763
 Alpha  occ. eigenvalues --   -0.66850  -0.56463  -0.56071  -0.53559  -0.51549
 Alpha  occ. eigenvalues --   -0.49936  -0.48628  -0.46368  -0.41773  -0.39783
 Alpha  occ. eigenvalues --   -0.39055  -0.37348  -0.36704  -0.34807  -0.34590
 Alpha  occ. eigenvalues --   -0.33297  -0.32097  -0.31736  -0.30799  -0.24066
 Alpha  occ. eigenvalues --   -0.24032
 Alpha virt. eigenvalues --    0.00816   0.01907   0.04167   0.06786   0.07307
 Alpha virt. eigenvalues --    0.07909   0.09510   0.09977   0.10542   0.11055
 Alpha virt. eigenvalues --    0.12780   0.13657   0.13953   0.14842   0.15967
 Alpha virt. eigenvalues --    0.17597   0.18388   0.20418   0.21659   0.23253
 Alpha virt. eigenvalues --    0.24690   0.28769   0.30044   0.30982   0.32175
 Alpha virt. eigenvalues --    0.33271   0.34225   0.36294   0.36631   0.37781
 Alpha virt. eigenvalues --    0.38842   0.41348   0.43097   0.43950   0.44489
 Alpha virt. eigenvalues --    0.44987   0.47272   0.48675   0.49860   0.50517
 Alpha virt. eigenvalues --    0.50747   0.52205   0.53230   0.53884   0.55508
 Alpha virt. eigenvalues --    0.56332   0.56688   0.58173   0.58747   0.59095
 Alpha virt. eigenvalues --    0.59971   0.60315   0.61277   0.61635   0.63158
 Alpha virt. eigenvalues --    0.64187   0.65054   0.65859   0.66188   0.67035
 Alpha virt. eigenvalues --    0.68805   0.69499   0.72145   0.74625   0.75184
 Alpha virt. eigenvalues --    0.77434   0.78870   0.80257   0.82029   0.83408
 Alpha virt. eigenvalues --    0.90246   0.93417   0.99965   1.00663   1.02653
 Alpha virt. eigenvalues --    1.07623   1.09907   1.12285   1.13947   1.15674
 Alpha virt. eigenvalues --    1.18938   1.21095   1.22580   1.28458   1.32355
 Alpha virt. eigenvalues --    1.36892   1.39258   1.40791   1.41375   1.42527
 Alpha virt. eigenvalues --    1.44090   1.47292   1.47753   1.49039   1.52045
 Alpha virt. eigenvalues --    1.53050   1.53831   1.54795   1.56824   1.58756
 Alpha virt. eigenvalues --    1.59609   1.60205   1.60397   1.62457   1.62846
 Alpha virt. eigenvalues --    1.63468   1.64517   1.66090   1.67245   1.68713
 Alpha virt. eigenvalues --    1.69337   1.70208   1.74159   1.76022   1.76541
 Alpha virt. eigenvalues --    1.77212   1.78133   1.80490   1.82032   1.83063
 Alpha virt. eigenvalues --    1.84299   1.86301   1.87192   1.89323   1.89749
 Alpha virt. eigenvalues --    1.90329   1.92188   1.93330   1.96214   1.99859
 Alpha virt. eigenvalues --    2.01981   2.04716   2.07868   2.08182   2.10841
 Alpha virt. eigenvalues --    2.11897   2.14486   2.15169   2.19202   2.20635
 Alpha virt. eigenvalues --    2.22473   2.24958   2.25658   2.29237   2.29932
 Alpha virt. eigenvalues --    2.33463   2.35307   2.36670   2.40927   2.41664
 Alpha virt. eigenvalues --    2.43265   2.45035   2.46383   2.48771   2.52892
 Alpha virt. eigenvalues --    2.58801   2.59266   2.60703   2.62210   2.63199
 Alpha virt. eigenvalues --    2.65371   2.65823   2.66362   2.67573   2.69273
 Alpha virt. eigenvalues --    2.71578   2.73825   2.74626   2.76859   2.79559
 Alpha virt. eigenvalues --    2.80541   2.83563   2.85735   2.86734   2.91597
 Alpha virt. eigenvalues --    2.91813   2.94473   2.94991   3.01397   3.01634
 Alpha virt. eigenvalues --    3.03478   3.07586   3.08791   3.14473   3.21507
 Alpha virt. eigenvalues --    3.24650   3.29673   3.33968   3.40744   3.42378
 Alpha virt. eigenvalues --    3.51376   3.58193   3.70307   3.77472   3.92566
 Alpha virt. eigenvalues --    4.00419   4.01625   4.06472   4.08508   4.14077
 Alpha virt. eigenvalues --    4.16503   4.21506   4.23277   4.30193   4.37607
 Alpha virt. eigenvalues --    4.53928  23.64629  23.73476  23.83258  23.85308
 Alpha virt. eigenvalues --   23.89104  23.93002  23.97943  23.99942  24.26865
 Alpha virt. eigenvalues --   24.30547
          Condensed to atoms (all electrons):
               1          2          3          4          5          6
     1  C    5.018466   0.608094  -0.097527  -0.021876  -0.061315   0.353996
     2  C    0.608094   5.043878   0.351875  -0.059672  -0.021328  -0.098335
     3  C   -0.097527   0.351875   5.099467   0.349906  -0.091285  -0.057634
     4  C   -0.021876  -0.059672   0.349906   5.199092   0.378029  -0.096450
     5  C   -0.061315  -0.021328  -0.091285   0.378029   5.162880   0.341749
     6  C    0.353996  -0.098335  -0.057634  -0.096450   0.341749   5.144132
     7  C   -0.010918  -0.000583   0.002310  -0.079660   0.359657  -0.066282
     8  C    0.001401   0.001101   0.001822  -0.060647  -0.075492  -0.001690
     9  C   -0.000819  -0.016046  -0.049370   0.357767  -0.102564   0.007291
    10  C   -0.088181  -0.089943   0.357223  -0.087409  -0.085979   0.351753
    11  H    0.417785  -0.039006   0.008251  -0.001297   0.001879  -0.040073
    12  H   -0.039152   0.419214  -0.040406   0.002816  -0.001313   0.008262
    13  H    0.007434  -0.036722   0.409815  -0.034094   0.008148   0.007231
    14  H    0.000962   0.006688  -0.031183   0.395978  -0.028526   0.003683
    15  H    0.007205   0.000835   0.002957  -0.027225   0.396404  -0.041499
    16  H   -0.036357   0.007621   0.006876   0.007920  -0.032297   0.408528
    17  H    0.000497   0.000224  -0.000366   0.005701  -0.043407   0.000617
    18  H    0.000182   0.000135  -0.000236   0.005924   0.009039  -0.000386
    19  H    0.000091   0.000540   0.003506  -0.028777   0.004625  -0.000715
    20  H    0.002156   0.005954  -0.006524  -0.044996   0.006864   0.000672
    21  H    0.002177   0.002260  -0.032259   0.009118   0.009073  -0.031908
    22  H    0.009157   0.009377  -0.042212  -0.000548  -0.000598  -0.042888
               7          8          9         10         11         12
     1  C   -0.010918   0.001401  -0.000819  -0.088181   0.417785  -0.039152
     2  C   -0.000583   0.001101  -0.016046  -0.089943  -0.039006   0.419214
     3  C    0.002310   0.001822  -0.049370   0.357223   0.008251  -0.040406
     4  C   -0.079660  -0.060647   0.357767  -0.087409  -0.001297   0.002816
     5  C    0.359657  -0.075492  -0.102564  -0.085979   0.001879  -0.001313
     6  C   -0.066282  -0.001690   0.007291   0.351753  -0.040073   0.008262
     7  C    4.953460   0.634308  -0.074567   0.008947   0.003163   0.000177
     8  C    0.634308   4.956644   0.362572   0.000116   0.000443  -0.000015
     9  C   -0.074567   0.362572   4.912457   0.007999  -0.000072   0.000607
    10  C    0.008947   0.000116   0.007999   5.030835   0.005359   0.005156
    11  H    0.003163   0.000443  -0.000072   0.005359   0.561812  -0.005736
    12  H    0.000177  -0.000015   0.000607   0.005156  -0.005736   0.560184
    13  H   -0.000691  -0.000176  -0.001078  -0.022432  -0.000324  -0.003208
    14  H    0.006222   0.003679  -0.029070  -0.003450   0.000098  -0.000372
    15  H   -0.031029   0.000219   0.006574  -0.003202  -0.000263   0.000097
    16  H   -0.000509  -0.000134  -0.000469  -0.022735  -0.003031  -0.000312
    17  H    0.415201  -0.037938   0.008378  -0.000274  -0.000194   0.000009
    18  H   -0.038285   0.409392  -0.040554   0.000065   0.000015   0.000003
    19  H   -0.000449  -0.034945   0.397843  -0.000359   0.000011   0.000038
    20  H    0.000379  -0.039353   0.402093   0.000261  -0.000020  -0.000775
    21  H   -0.000355   0.000021  -0.000318   0.394151   0.000127   0.000200
    22  H    0.000483  -0.000093   0.000285   0.406270  -0.000274  -0.000266
              13         14         15         16         17         18
     1  C    0.007434   0.000962   0.007205  -0.036357   0.000497   0.000182
     2  C   -0.036722   0.006688   0.000835   0.007621   0.000224   0.000135
     3  C    0.409815  -0.031183   0.002957   0.006876  -0.000366  -0.000236
     4  C   -0.034094   0.395978  -0.027225   0.007920   0.005701   0.005924
     5  C    0.008148  -0.028526   0.396404  -0.032297  -0.043407   0.009039
     6  C    0.007231   0.003683  -0.041499   0.408528   0.000617  -0.000386
     7  C   -0.000691   0.006222  -0.031029  -0.000509   0.415201  -0.038285
     8  C   -0.000176   0.003679   0.000219  -0.000134  -0.037938   0.409392
     9  C   -0.001078  -0.029070   0.006574  -0.000469   0.008378  -0.040554
    10  C   -0.022432  -0.003450  -0.003202  -0.022735  -0.000274   0.000065
    11  H   -0.000324   0.000098  -0.000263  -0.003031  -0.000194   0.000015
    12  H   -0.003208  -0.000372   0.000097  -0.000312   0.000009   0.000003
    13  H    0.567708  -0.004324  -0.000337  -0.000375   0.000019   0.000027
    14  H   -0.004324   0.567061  -0.008924  -0.000305  -0.000268  -0.000361
    15  H   -0.000337  -0.008924   0.575377  -0.004083  -0.000302  -0.000445
    16  H   -0.000375  -0.000305  -0.004083   0.568393   0.000850   0.000029
    17  H    0.000019  -0.000268  -0.000302   0.000850   0.568878  -0.006109
    18  H    0.000027  -0.000361  -0.000445   0.000029  -0.006109   0.568632
    19  H   -0.000116  -0.010694   0.000706   0.000025  -0.000401  -0.000128
    20  H    0.001853   0.005438  -0.000683   0.000015  -0.000324  -0.000525
    21  H   -0.002841  -0.000295  -0.000253  -0.002869   0.000011  -0.000006
    22  H   -0.002646   0.000967   0.001214  -0.002539  -0.000008  -0.000002
              19         20         21         22
     1  C    0.000091   0.002156   0.002177   0.009157
     2  C    0.000540   0.005954   0.002260   0.009377
     3  C    0.003506  -0.006524  -0.032259  -0.042212
     4  C   -0.028777  -0.044996   0.009118  -0.000548
     5  C    0.004625   0.006864   0.009073  -0.000598
     6  C   -0.000715   0.000672  -0.031908  -0.042888
     7  C   -0.000449   0.000379  -0.000355   0.000483
     8  C   -0.034945  -0.039353   0.000021  -0.000093
     9  C    0.397843   0.402093  -0.000318   0.000285
    10  C   -0.000359   0.000261   0.394151   0.406270
    11  H    0.000011  -0.000020   0.000127  -0.000274
    12  H    0.000038  -0.000775   0.000200  -0.000266
    13  H   -0.000116   0.001853  -0.002841  -0.002646
    14  H   -0.010694   0.005438  -0.000295   0.000967
    15  H    0.000706  -0.000683  -0.000253   0.001214
    16  H    0.000025   0.000015  -0.002869  -0.002539
    17  H   -0.000401  -0.000324   0.000011  -0.000008
    18  H   -0.000128  -0.000525  -0.000006  -0.000002
    19  H    0.589265  -0.037233   0.000014  -0.000018
    20  H   -0.037233   0.591955  -0.000039  -0.000069
    21  H    0.000014  -0.000039   0.570463  -0.028368
    22  H   -0.000018  -0.000069  -0.028368   0.586383
 Mulliken charges:
               1
     1  C   -0.073455
     2  C   -0.096159
     3  C   -0.145005
     4  C   -0.169598
     5  C   -0.134244
     6  C   -0.150054
     7  C   -0.080979
     8  C   -0.121233
     9  C   -0.148937
    10  C   -0.164173
    11  H    0.091346
    12  H    0.094791
    13  H    0.107129
    14  H    0.126996
    15  H    0.126658
    16  H    0.105759
    17  H    0.089207
    18  H    0.093594
    19  H    0.117170
    20  H    0.112899
    21  H    0.111897
    22  H    0.106392
 Sum of Mulliken charges =  -0.00000
 Mulliken charges with hydrogens summed into heavy atoms:
               1
     1  C    0.017891
     2  C   -0.001369
     3  C   -0.037876
     4  C   -0.042602
     5  C   -0.007586
     6  C   -0.044295
     7  C    0.008228
     8  C   -0.027639
     9  C    0.081132
    10  C    0.054116
 Electronic spatial extent (au):  <R**2>=           1121.5067
 Charge=              0.0000 electrons
 Dipole moment (field-independent basis, Debye):
    X=             -0.0953    Y=             -0.1224    Z=             -0.2540  Tot=              0.2977
 Quadrupole moment (field-independent basis, Debye-Ang):
   XX=            -62.5213   YY=            -58.1606   ZZ=            -60.0402
   XY=              0.5740   XZ=             -1.5694   YZ=              0.0117
 Traceless Quadrupole moment (field-independent basis, Debye-Ang):
   XX=             -2.2806   YY=              2.0801   ZZ=              0.2005
   XY=              0.5740   XZ=             -1.5694   YZ=              0.0117
 Octapole moment (field-independent basis, Debye-Ang**2):
  XXX=             -5.7479  YYY=              3.0669  ZZZ=              0.0442  XYY=              0.0495
  XXY=             -1.1958  XXZ=              1.1942  XZZ=              0.1810  YZZ=             -1.2929
  YYZ=              1.8453  XYZ=             -0.8555
 Hexadecapole moment (field-independent basis, Debye-Ang**3):
 XXXX=           -823.4221 YYYY=           -407.0193 ZZZZ=           -322.1251 XXXY=              4.4280
 XXXZ=            -22.7630 YYYX=             -4.8822 YYYZ=              0.8135 ZZZX=              0.2028
 ZZZY=             -0.6109 XXYY=           -204.5056 XXZZ=           -199.6526 YYZZ=           -119.8857
 XXYZ=              4.2522 YYXZ=              0.9758 ZZXY=              2.8315
 N-N= 5.334600963620D+02 E-N=-1.967485127815D+03  KE= 3.864265709668D+02
 D1PCM: PCM CHGder 1st derivatives, ID1Alg=3 FixD1E=F DoIter=F DoCFld=F I1PDM=0.
 Calling FoFJK, ICntrl=      2127 FMM=F ISym2X=0 I1Cent= 0 IOpClX= 0 NMat=1 NMatS=1 NMatT=0.
 ***** Axes restored to original set *****
 -------------------------------------------------------------------
 Center     Atomic                   Forces (Hartrees/Bohr)
 Number     Number              X              Y              Z
 -------------------------------------------------------------------
      1        6          -0.000986561   -0.002337285    0.000275893
      2        6          -0.001071047    0.002422405    0.000268198
      3        6           0.000101552   -0.001032340   -0.000491889
      4        6           0.000185949   -0.000244993   -0.000664562
      5        6           0.000096730   -0.000420005   -0.000527850
      6        6           0.000156268    0.001059269   -0.000420327
      7        6          -0.000731165   -0.002268536    0.001168177
      8        6           0.001692414    0.002233816   -0.000677512
      9        6           0.000778222   -0.000387525    0.000061634
     10        6           0.000219138   -0.000014379   -0.001081481
     11        1          -0.000033505   -0.001078532   -0.001294815
     12        1          -0.000011604    0.001036111   -0.001336273
     13        1          -0.000672539    0.001858498    0.000329349
     14        1           0.000139548    0.000803759    0.001874820
     15        1           0.000018677   -0.000814201    0.001909008
     16        1          -0.000800509   -0.001785922    0.000373412
     17        1           0.000472915   -0.001510295   -0.000125528
     18        1           0.001343581    0.000013024   -0.000735347
     19        1           0.001116554    0.001157080    0.000677624
     20        1           0.000090377    0.001212573   -0.001032228
     21        1          -0.001535856    0.000061398   -0.000125642
     22        1          -0.000569139    0.000036082    0.001575340
 -------------------------------------------------------------------
 Cartesian Forces:  Max     0.002422405 RMS     0.001047296

 GradGradGradGradGradGradGradGradGradGradGradGradGradGradGradGradGradGrad
 Berny optimization.
 FormGI is forming the generalized inverse of G from B-inverse, IUseBI=4.
 Internal  Forces:  Max     0.004055060 RMS     0.000849336
 Search for a local minimum.
 Step number   1 out of a maximum of  132
 All quantities printed in internal units (Hartrees-Bohrs-Radians)
 Mixed Optimization -- En-DIIS/RFO-DIIS
 Second derivative matrix not updated -- first step.
 ITU=  0
     Eigenvalues ---    0.00400   0.00924   0.01109   0.01257   0.01538
     Eigenvalues ---    0.01625   0.01812   0.01828   0.02586   0.02900
     Eigenvalues ---    0.03559   0.03975   0.04133   0.04305   0.04692
     Eigenvalues ---    0.04948   0.05054   0.05340   0.05530   0.05595
     Eigenvalues ---    0.05776   0.06316   0.06634   0.07018   0.07489
     Eigenvalues ---    0.08273   0.09138   0.09657   0.11373   0.12482
     Eigenvalues ---    0.15678   0.15887   0.15999   0.16000   0.16227
     Eigenvalues ---    0.18527   0.21823   0.22131   0.23739   0.24993
     Eigenvalues ---    0.25449   0.26654   0.27201   0.29348   0.29851
     Eigenvalues ---    0.31307   0.33843   0.33870   0.33877   0.34072
     Eigenvalues ---    0.34315   0.34378   0.34487   0.34531   0.35163
     Eigenvalues ---    0.35187   0.35451   0.35459   0.50264   0.54119
 RFO step:  Lambda=-4.55421555D-04 EMin= 3.99767861D-03
 Linear search not attempted -- first point.
 Iteration  1 RMS(Cart)=  0.01434863 RMS(Int)=  0.00005901
 Iteration  2 RMS(Cart)=  0.00007701 RMS(Int)=  0.00001007
 Iteration  3 RMS(Cart)=  0.00000000 RMS(Int)=  0.00001007
 Variable       Old X    -DE/DX   Delta X   Delta X   Delta X     New X
                                 (Linear)    (Quad)   (Total)
    R1        2.53206  -0.00320   0.00000  -0.00636  -0.00635   2.52570
    R2        2.87309  -0.00092   0.00000  -0.00348  -0.00348   2.86961
    R3        2.04935  -0.00167   0.00000  -0.00472  -0.00472   2.04464
    R4        2.87752  -0.00088   0.00000  -0.00332  -0.00332   2.87420
    R5        2.04948  -0.00168   0.00000  -0.00472  -0.00472   2.04476
    R6        2.97100  -0.00288   0.00000  -0.01056  -0.01056   2.96044
    R7        2.92851  -0.00112   0.00000  -0.00404  -0.00406   2.92445
    R8        2.06515  -0.00200   0.00000  -0.00579  -0.00579   2.05937
    R9        2.97393  -0.00219   0.00000  -0.00462  -0.00459   2.96934
   R10        2.93425  -0.00276   0.00000  -0.00881  -0.00880   2.92545
   R11        2.06801  -0.00204   0.00000  -0.00594  -0.00594   2.06207
   R12        2.98827  -0.00268   0.00000  -0.01024  -0.01025   2.97802
   R13        2.84376  -0.00198   0.00000  -0.00656  -0.00656   2.83721
   R14        2.07538  -0.00207   0.00000  -0.00611  -0.00611   2.06927
   R15        2.92766  -0.00103   0.00000  -0.00426  -0.00428   2.92339
   R16        2.06443  -0.00199   0.00000  -0.00574  -0.00574   2.05868
   R17        2.52390  -0.00406   0.00000  -0.00781  -0.00782   2.51608
   R18        2.05373  -0.00158   0.00000  -0.00448  -0.00448   2.04925
   R19        2.85621  -0.00107   0.00000  -0.00430  -0.00431   2.85190
   R20        2.05412  -0.00153   0.00000  -0.00433  -0.00433   2.04978
   R21        2.07550  -0.00170   0.00000  -0.00501  -0.00501   2.07048
   R22        2.07596  -0.00150   0.00000  -0.00442  -0.00442   2.07154
   R23        2.06696  -0.00149   0.00000  -0.00433  -0.00433   2.06264
   R24        2.07209  -0.00158   0.00000  -0.00462  -0.00462   2.06747
    A1        1.87872   0.00029   0.00000   0.00065   0.00064   1.87936
    A2        2.21810  -0.00019   0.00000  -0.00111  -0.00111   2.21699
    A3        2.18087  -0.00010   0.00000  -0.00037  -0.00038   2.18049
    A4        1.87759   0.00031   0.00000   0.00086   0.00085   1.87844
    A5        2.21717  -0.00019   0.00000  -0.00094  -0.00094   2.21624
    A6        2.18335  -0.00012   0.00000  -0.00040  -0.00040   2.18295
    A7        1.88416  -0.00106   0.00000  -0.01074  -0.01074   1.87341
    A8        1.74311   0.00024   0.00000   0.00549   0.00546   1.74858
    A9        2.02499   0.00034   0.00000   0.00170   0.00167   2.02666
   A10        1.74419  -0.00002   0.00000  -0.00111  -0.00108   1.74312
   A11        1.98896   0.00029   0.00000   0.00096   0.00094   1.98990
   A12        2.04321   0.00008   0.00000   0.00300   0.00299   2.04620
   A13        1.78837   0.00033   0.00000   0.00041   0.00039   1.78875
   A14        2.05469  -0.00082   0.00000  -0.01045  -0.01047   2.04422
   A15        1.89422   0.00027   0.00000   0.00375   0.00376   1.89797
   A16        1.85622  -0.00029   0.00000  -0.00140  -0.00142   1.85480
   A17        1.93448  -0.00004   0.00000   0.00253   0.00252   1.93700
   A18        1.92974   0.00052   0.00000   0.00513   0.00514   1.93488
   A19        1.79234   0.00011   0.00000   0.00126   0.00125   1.79359
   A20        1.81550   0.00013   0.00000   0.00081   0.00080   1.81630
   A21        1.95896  -0.00010   0.00000   0.00165   0.00164   1.96060
   A22        2.05918  -0.00090   0.00000  -0.01104  -0.01105   2.04813
   A23        1.88559   0.00034   0.00000   0.00339   0.00339   1.88898
   A24        1.94655   0.00038   0.00000   0.00385   0.00385   1.95040
   A25        1.87991  -0.00102   0.00000  -0.01031  -0.01031   1.86960
   A26        1.74608   0.00023   0.00000   0.00484   0.00482   1.75091
   A27        2.02919   0.00035   0.00000   0.00173   0.00170   2.03089
   A28        1.73423   0.00003   0.00000  -0.00112  -0.00110   1.73313
   A29        1.99053   0.00026   0.00000   0.00092   0.00091   1.99144
   A30        2.04659   0.00003   0.00000   0.00315   0.00314   2.04973
   A31        1.96442   0.00008   0.00000  -0.00024  -0.00024   1.96418
   A32        2.14193  -0.00005   0.00000   0.00000  -0.00002   2.14191
   A33        2.17682  -0.00003   0.00000   0.00018   0.00016   2.17699
   A34        1.97176   0.00021   0.00000  -0.00026  -0.00027   1.97149
   A35        2.17793  -0.00022   0.00000  -0.00060  -0.00060   2.17734
   A36        2.13350   0.00001   0.00000   0.00086   0.00086   2.13436
   A37        1.81674  -0.00014   0.00000   0.00100   0.00101   1.81775
   A38        1.95069  -0.00004   0.00000  -0.00048  -0.00048   1.95021
   A39        1.96163  -0.00016   0.00000  -0.00328  -0.00329   1.95834
   A40        1.94196   0.00014   0.00000   0.00058   0.00057   1.94253
   A41        1.94510  -0.00008   0.00000  -0.00237  -0.00237   1.94272
   A42        1.85034   0.00028   0.00000   0.00432   0.00432   1.85466
   A43        1.63509  -0.00027   0.00000   0.00088   0.00086   1.63595
   A44        1.97114  -0.00010   0.00000  -0.00080  -0.00079   1.97035
   A45        1.98097   0.00009   0.00000  -0.00209  -0.00209   1.97888
   A46        1.97118  -0.00012   0.00000  -0.00105  -0.00105   1.97013
   A47        1.98015   0.00010   0.00000  -0.00205  -0.00204   1.97811
   A48        1.91360   0.00023   0.00000   0.00428   0.00427   1.91787
    D1       -0.00547   0.00006   0.00000   0.00272   0.00272  -0.00276
    D2       -3.04262   0.00007   0.00000   0.00760   0.00759  -3.03503
    D3        3.02732  -0.00000   0.00000  -0.00541  -0.00540   3.02192
    D4       -0.00982   0.00001   0.00000  -0.00052  -0.00052  -0.01034
    D5        1.22044   0.00007   0.00000   0.00120   0.00120   1.22163
    D6       -0.58246   0.00022   0.00000   0.00327   0.00329  -0.57916
    D7       -2.80442  -0.00020   0.00000  -0.00540  -0.00540  -2.80982
    D8       -1.81528   0.00014   0.00000   0.00916   0.00916  -1.80612
    D9        2.66501   0.00029   0.00000   0.01124   0.01125   2.67627
   D10        0.44305  -0.00013   0.00000   0.00257   0.00257   0.44561
   D11       -1.22274  -0.00009   0.00000  -0.00579  -0.00579  -1.22853
   D12        0.59092  -0.00030   0.00000  -0.00771  -0.00773   0.58319
   D13        2.80392   0.00018   0.00000   0.00112   0.00111   2.80502
   D14        1.81695  -0.00011   0.00000  -0.01060  -0.01059   1.80636
   D15       -2.65257  -0.00031   0.00000  -0.01252  -0.01253  -2.66510
   D16       -0.43957   0.00016   0.00000  -0.00369  -0.00370  -0.44327
   D17        1.16568  -0.00010   0.00000   0.00198   0.00198   1.16766
   D18       -0.86288   0.00044   0.00000   0.00871   0.00869  -0.85419
   D19       -3.07059   0.00014   0.00000   0.00663   0.00663  -3.06396
   D20       -0.64722  -0.00007   0.00000  -0.00074  -0.00075  -0.64796
   D21       -2.67578   0.00046   0.00000   0.00598   0.00596  -2.66982
   D22        1.39970   0.00016   0.00000   0.00391   0.00391   1.40360
   D23       -2.84086  -0.00031   0.00000  -0.00417  -0.00417  -2.84503
   D24        1.41376   0.00023   0.00000   0.00255   0.00254   1.41630
   D25       -0.79395  -0.00008   0.00000   0.00048   0.00048  -0.79347
   D26       -0.88199   0.00078   0.00000   0.01044   0.01045  -0.87155
   D27        1.15709   0.00048   0.00000   0.00947   0.00948   1.16657
   D28       -2.93407   0.00078   0.00000   0.01293   0.01293  -2.92114
   D29        1.04439  -0.00027   0.00000   0.00031   0.00031   1.04470
   D30        3.08347  -0.00057   0.00000  -0.00066  -0.00066   3.08281
   D31       -1.00769  -0.00027   0.00000   0.00279   0.00280  -1.00489
   D32       -3.08267   0.00012   0.00000   0.00236   0.00235  -3.08032
   D33       -1.04358  -0.00018   0.00000   0.00139   0.00138  -1.04220
   D34        1.14844   0.00012   0.00000   0.00484   0.00484   1.15328
   D35       -0.00393   0.00005   0.00000   0.00130   0.00130  -0.00264
   D36       -2.15945   0.00095   0.00000   0.01273   0.01275  -2.14670
   D37        2.01689   0.00046   0.00000   0.00671   0.00671   2.02360
   D38        2.16296  -0.00086   0.00000  -0.01108  -0.01109   2.15187
   D39        0.00745   0.00004   0.00000   0.00036   0.00036   0.00781
   D40       -2.09940  -0.00044   0.00000  -0.00567  -0.00568  -2.10508
   D41       -2.02189  -0.00042   0.00000  -0.00432  -0.00433  -2.02622
   D42        2.10578   0.00048   0.00000   0.00712   0.00712   2.11290
   D43       -0.00107  -0.00001   0.00000   0.00109   0.00109   0.00002
   D44        1.97754  -0.00030   0.00000  -0.00962  -0.00959   1.96795
   D45       -2.20790  -0.00024   0.00000  -0.00857  -0.00855  -2.21645
   D46       -0.12977  -0.00002   0.00000  -0.00562  -0.00560  -0.13537
   D47       -0.01391  -0.00006   0.00000  -0.00333  -0.00333  -0.01724
   D48        2.08384   0.00000   0.00000  -0.00228  -0.00229   2.08155
   D49       -2.12121   0.00022   0.00000   0.00067   0.00066  -2.12055
   D50       -2.11530  -0.00013   0.00000  -0.00840  -0.00840  -2.12370
   D51       -0.01756  -0.00007   0.00000  -0.00735  -0.00736  -0.02491
   D52        2.06058   0.00014   0.00000  -0.00440  -0.00441   2.05617
   D53       -1.15851  -0.00002   0.00000  -0.00365  -0.00365  -1.16216
   D54        0.65280  -0.00002   0.00000  -0.00140  -0.00140   0.65141
   D55        2.84472   0.00017   0.00000   0.00215   0.00215   2.84687
   D56        0.82477  -0.00022   0.00000  -0.00709  -0.00707   0.81770
   D57        2.63608  -0.00022   0.00000  -0.00484  -0.00482   2.63126
   D58       -1.45518  -0.00002   0.00000  -0.00129  -0.00128  -1.45646
   D59        3.05167  -0.00011   0.00000  -0.00763  -0.00763   3.04404
   D60       -1.42021  -0.00011   0.00000  -0.00538  -0.00538  -1.42558
   D61        0.77171   0.00009   0.00000  -0.00183  -0.00183   0.76988
   D62        0.00290  -0.00000   0.00000   0.00332   0.00332   0.00623
   D63        3.13783  -0.00015   0.00000  -0.00538  -0.00538   3.13245
   D64       -1.96758   0.00022   0.00000   0.00669   0.00667  -1.96091
   D65        1.16734   0.00007   0.00000  -0.00201  -0.00202   1.16532
   D66        2.11807   0.00016   0.00000   0.00784   0.00785   2.12592
   D67       -1.03019   0.00001   0.00000  -0.00086  -0.00085  -1.03105
   D68        0.88015  -0.00074   0.00000  -0.00903  -0.00904   0.87111
   D69       -1.15891  -0.00046   0.00000  -0.00827  -0.00828  -1.16719
   D70        2.93291  -0.00075   0.00000  -0.01155  -0.01156   2.92135
   D71       -1.04004   0.00027   0.00000   0.00084   0.00085  -1.03920
   D72       -3.07910   0.00055   0.00000   0.00160   0.00160  -3.07750
   D73        1.01272   0.00025   0.00000  -0.00168  -0.00168   1.01104
   D74        3.09046  -0.00010   0.00000  -0.00118  -0.00117   3.08929
   D75        1.05140   0.00018   0.00000  -0.00042  -0.00041   1.05099
   D76       -1.13996  -0.00011   0.00000  -0.00370  -0.00370  -1.14366
   D77       -0.01280  -0.00004   0.00000  -0.00588  -0.00588  -0.01868
   D78        3.12835  -0.00010   0.00000  -0.00561  -0.00561   3.12274
   D79        3.13562   0.00011   0.00000   0.00302   0.00302   3.13864
   D80       -0.00642   0.00006   0.00000   0.00329   0.00330  -0.00312
   D81        0.01684   0.00007   0.00000   0.00575   0.00576   0.02260
   D82       -2.08678   0.00013   0.00000   0.00543   0.00543  -2.08135
   D83        2.13519  -0.00026   0.00000   0.00117   0.00117   2.13636
   D84       -3.12432   0.00012   0.00000   0.00549   0.00550  -3.11883
   D85        1.05525   0.00019   0.00000   0.00516   0.00516   1.06041
   D86       -1.00597  -0.00020   0.00000   0.00090   0.00091  -1.00506
         Item               Value     Threshold  Converged?
 Maximum Force            0.004055     0.000450     NO 
 RMS     Force            0.000849     0.000300     NO 
 Maximum Displacement     0.079847     0.001800     NO 
 RMS     Displacement     0.014361     0.001200     NO 
 Predicted change in Energy=-2.287362D-04
 GradGradGradGradGradGradGradGradGradGradGradGradGradGradGradGradGradGrad

                          Input orientation:                          
 ---------------------------------------------------------------------
 Center     Atomic      Atomic             Coordinates (Angstroms)
 Number     Number       Type             X           Y           Z
 ---------------------------------------------------------------------
      1          6           0        1.020698    0.674703    1.281017
      2          6           0        0.980745   -0.661134    1.298183
      3          6           0        1.023944   -1.141771   -0.144189
      4          6           0       -0.349479   -0.772005   -0.800856
      5          6           0       -0.303274    0.798456   -0.823768
      6          6           0        1.095328    1.115228   -0.170295
      7          6           0       -1.529696    1.210755   -0.062156
      8          6           0       -2.231530    0.168437    0.378034
      9          6           0       -1.630693   -1.156952   -0.021840
     10          6           0        1.920837   -0.047220   -0.770651
     11          1           0        0.903468    1.340917    2.125463
     12          1           0        0.833326   -1.296880    2.161263
     13          1           0        1.323016   -2.178704   -0.295598
     14          1           0       -0.374201   -1.177000   -1.813816
     15          1           0       -0.304211    1.199959   -1.842514
     16          1           0        1.451118    2.129024   -0.350414
     17          1           0       -1.789772    2.248910    0.112630
     18          1           0       -3.141712    0.238874    0.963850
     19          1           0       -2.323414   -1.737212   -0.641430
     20          1           0       -1.411572   -1.776042    0.855879
     21          1           0        2.946863   -0.075119   -0.399349
     22          1           0        1.920515   -0.059222   -1.864644
 ---------------------------------------------------------------------
                    Distance matrix (angstroms):
                    1          2          3          4          5
     1  C    0.000000
     2  C    1.336544   0.000000
     3  C    2.308853   1.520959   0.000000
     4  C    2.881761   2.487519   1.566598   0.000000
     5  C    2.489646   2.877809   2.447002   1.571308   0.000000
     6  C    1.518532   2.307600   2.258279   2.459009   1.575899
     7  C    2.931890   3.414206   3.473066   2.422794   1.501385
     8  C    3.413016   3.442902   3.547883   2.411706   2.357843
     9  C    3.475957   2.967812   2.657498   1.548082   2.495747
    10  C    2.353883   2.353878   1.547551   2.383393   2.380054
    11  H    1.081976   2.167619   3.365943   3.820688   3.232407
    12  H    2.167275   1.082041   2.318513   3.232440   3.820040
    13  H    3.273995   2.227175   1.089770   2.243062   3.433259
    14  H    3.866851   3.433152   2.178005   1.091201   2.210803
    15  H    3.433326   3.870240   3.183081   2.230638   1.095010
    16  H    2.227527   3.274768   3.305012   3.443983   2.252191
    17  H    3.426660   4.189230   4.413578   3.469125   2.278230
    18  H    4.197165   4.232781   4.526214   3.454363   3.400800
    19  H    4.549310   3.979637   3.436074   2.203057   3.247126
    20  H    3.478913   2.676160   2.708168   2.209276   3.267657
    21  H    2.663826   2.662827   2.213700   3.393041   3.392146
    22  H    3.353133   3.353944   2.221647   2.606257   2.600822
                    6          7          8          9         10
     6  C    0.000000
     7  C    2.628987   0.000000
     8  C    3.502151   1.331452   0.000000
     9  C    3.551906   2.370204   1.509159   0.000000
    10  C    1.546990   3.740407   4.313715   3.795470   0.000000
    11  H    2.314789   3.274585   3.775769   4.155988   3.368893
    12  H    3.364978   4.100696   3.836718   3.294983   3.367559
    13  H    3.304169   4.436316   4.312499   3.137406   2.264131
    14  H    3.180406   3.178814   3.172393   2.188687   2.762570
    15  H    2.182248   2.161390   3.115996   3.260282   2.766800
    16  H    1.089409   3.132342   4.235143   4.516986   2.265672
    17  H    3.112729   1.084414   2.143352   3.412226   4.452080
    18  H    4.472894   2.143789   1.084699   2.281029   5.359080
    19  H    4.477296   3.107420   2.163157   1.095653   4.570168
    20  H    3.961947   3.126931   2.163715   1.096210   4.091378
    21  H    2.213046   4.669770   5.242079   4.718781   1.091500
    22  H    2.220605   4.094602   4.724501   4.148737   1.094059
                   11         12         13         14         15
    11  H    0.000000
    12  H    2.638973   0.000000
    13  H    4.292469   2.655857   0.000000
    14  H    4.846675   4.156170   2.487759   0.000000
    15  H    4.150084   4.853703   4.056622   2.378162   0.000000
    16  H    2.655372   4.292669   4.309981   4.050077   2.484090
    17  H    3.482741   4.863144   5.427694   4.177546   2.670164
    18  H    4.350554   4.426428   5.231127   4.168842   4.104969
    19  H    5.248175   4.244289   3.689304   2.342596   3.761217
    20  H    4.084934   2.640680   2.994329   2.926135   4.167032
    21  H    3.543345   3.537863   2.659457   3.774165   3.778628
    22  H    4.349221   4.349909   2.703907   2.552985   2.556449
                   16         17         18         19         20
    16  H    0.000000
    17  H    3.275996   0.000000
    18  H    5.137513   2.567598   0.000000
    19  H    5.411059   4.091766   2.674220   0.000000
    20  H    4.989958   4.110437   2.657993   1.753539   0.000000
    21  H    2.664187   5.300843   6.247210   5.531453   4.844037
    22  H    2.702156   4.796177   5.806494   4.724705   4.631579
                   21         22
    21  H    0.000000
    22  H    1.789059   0.000000
 Stoichiometry    C10H12
 Framework group  C1[X(C10H12)]
 Deg. of freedom    60
 Full point group                 C1      NOp   1
 Largest Abelian subgroup         C1      NOp   1
 Largest concise Abelian subgroup C1      NOp   1
                         Standard orientation:                         
 ---------------------------------------------------------------------
 Center     Atomic      Atomic             Coordinates (Angstroms)
 Number     Number       Type             X           Y           Z
 ---------------------------------------------------------------------
      1          6           0        1.018258    0.677777    1.281366
      2          6           0        0.978709   -0.658036    1.301163
      3          6           0        1.024334   -1.141565   -0.140168
      4          6           0       -0.348173   -0.773572   -0.799739
      5          6           0       -0.302439    0.796855   -0.825745
      6          6           0        1.095030    1.115400   -0.170712
      7          6           0       -1.530192    1.210288   -0.066896
      8          6           0       -2.232381    0.168630    0.374290
      9          6           0       -1.630487   -1.157366   -0.021965
     10          6           0        1.921858   -0.047986   -0.767424
     11          1           0        0.899484    1.345653    2.124281
     12          1           0        0.830138   -1.292089    2.165290
     13          1           0        1.323979   -2.178703   -0.289015
     14          1           0       -0.371170   -1.180615   -1.811918
     15          1           0       -0.301903    1.196303   -1.845298
     16          1           0        1.450775    2.128947   -0.352315
     17          1           0       -1.790878    2.248708    0.105388
     18          1           0       -3.143506    0.239951    0.958530
     19          1           0       -2.322045   -1.739099   -0.641473
     20          1           0       -1.412548   -1.774614    0.857344
     21          1           0        2.947307   -0.074802   -0.394452
     22          1           0        1.923262   -0.062194   -1.861389
 ---------------------------------------------------------------------
 Rotational constants (GHZ):           2.4736370           1.4708717           1.3527380
 Standard basis: 6-311G(d,p) (5D, 7F)
 There are   262 symmetry adapted cartesian basis functions of A   symmetry.
 There are   252 symmetry adapted basis functions of A   symmetry.
   252 basis functions,   416 primitive gaussians,   262 cartesian basis functions
    36 alpha electrons       36 beta electrons
       nuclear repulsion energy       535.4198039048 Hartrees.
 NAtoms=   22 NActive=   22 NUniq=   22 SFac= 1.00D+00 NAtFMM=   60 NAOKFM=F Big=F
 Integral buffers will be    131072 words long.
 Raffenetti 2 integral format.
 Two-electron integral symmetry is turned on.
 Nuclear repulsion after empirical dispersion term =      535.3749338464 Hartrees.
 ------------------------------------------------------------------------------
 Polarizable Continuum Model (PCM)
 =================================
 Model                : PCM.
 Atomic radii         : UFF (Universal Force Field).
 Polarization charges : Total charges.
 Charge compensation  : None.
 Solution method      : On-the-fly selection.
 Cavity type          : Scaled VdW (van der Waals Surface) (Alpha=1.100).
 Cavity algorithm     : GePol (No added spheres)
                        Default sphere list used, NSphG=   22.
                        Lebedev-Laikov grids with approx.  5.0 points / Ang**2.
                        Smoothing algorithm: York/Karplus (Gamma=1.0000).
                        Polarization charges: spherical gaussians, with
                                              point-specific exponents (IZeta= 3).
                        Self-potential: point-specific (ISelfS= 7).
                        Self-field    : sphere-specific E.n sum rule (ISelfD= 2).
 1st derivatives      : Analytical E(r).r(x)/FMM algorithm (CHGder, D1EAlg=3).
                        Cavity 1st derivative terms included.
 Solvent              : Cis-Decalin, Eps=   2.213900 Eps(inf)=   2.193361
 ------------------------------------------------------------------------------
 One-electron integrals computed using PRISM.
 NBasis=   252 RedAO= T EigKep=  4.00D-04  NBF=   252
 NBsUse=   252 1.00D-06 EigRej= -1.00D+00 NBFU=   252
 Initial guess from the checkpoint file:  "02.chk"
 B after Tr=    -0.000000   -0.000000    0.000000
         Rot=    0.999986    0.002226    0.004892    0.000138 Ang=   0.62 deg.
 ExpMin= 1.03D-01 ExpMax= 4.56D+03 ExpMxC= 6.82D+02 IAcc=2 IRadAn=         4 AccDes= 0.00D+00
 Harris functional with IExCor=  402 and IRadAn=       4 diagonalized for initial guess.
 HarFok:  IExCor=  402 AccDes= 0.00D+00 IRadAn=         4 IDoV= 1 UseB2=F ITyADJ=14
 ICtDFT=  3500011 ScaDFX=  1.000000  1.000000  1.000000  1.000000
 FoFCou: FMM=F IPFlag=           0 FMFlag=      100000 FMFlg1=           0
         NFxFlg=           0 DoJE=T BraDBF=F KetDBF=T FulRan=T
         wScrn=  0.000000 ICntrl=       500 IOpCl=  0 I1Cent=   200000004 NGrid=           0
         NMat0=    1 NMatS0=      1 NMatT0=    0 NMatD0=    1 NMtDS0=    0 NMtDT0=    0
 Petite list used in FoFCou.
 Requested convergence on RMS density matrix=1.00D-08 within 128 cycles.
 Requested convergence on MAX density matrix=1.00D-06.
 Requested convergence on             energy=1.00D-06.
 No special actions if energy rises.
 Inv3:  Mode=1 IEnd=     7142547.
 Iteration    1 A*A^-1 deviation from unit magnitude is 4.44D-15 for   1523.
 Iteration    1 A*A^-1 deviation from orthogonality  is 3.47D-15 for   1504    718.
 Iteration    1 A^-1*A deviation from unit magnitude is 4.22D-15 for   1523.
 Iteration    1 A^-1*A deviation from orthogonality  is 1.37D-15 for   1305    222.
 Error on total polarization charges =  0.00648
 SCF Done:  E(RB3LYP) =  -388.370603855     A.U. after    9 cycles
            NFock=  9  Conv=0.87D-08     -V/T= 2.0047
 D1PCM: PCM CHGder 1st derivatives, ID1Alg=3 FixD1E=F DoIter=F DoCFld=F I1PDM=0.
 Calling FoFJK, ICntrl=      2127 FMM=F ISym2X=0 I1Cent= 0 IOpClX= 0 NMat=1 NMatS=1 NMatT=0.
 ***** Axes restored to original set *****
 -------------------------------------------------------------------
 Center     Atomic                   Forces (Hartrees/Bohr)
 Number     Number              X              Y              Z
 -------------------------------------------------------------------
      1        6           0.000358673   -0.000290320    0.000242421
      2        6           0.000808275    0.000241485    0.000260255
      3        6          -0.000029312   -0.000167098   -0.000237442
      4        6          -0.000370679    0.000067204   -0.000293038
      5        6          -0.000292610    0.000128320   -0.000834952
      6        6           0.000109329    0.000241725   -0.000122098
      7        6          -0.000105293    0.000161901    0.000039828
      8        6          -0.000546200   -0.000066289    0.000004265
      9        6          -0.000210766   -0.000474269    0.000053120
     10        6           0.000769973   -0.000031413    0.000620928
     11        1          -0.000110360    0.000026400    0.000000255
     12        1          -0.000029491   -0.000015235   -0.000002056
     13        1           0.000041885    0.000050315    0.000012935
     14        1          -0.000109524    0.000136190   -0.000014605
     15        1          -0.000084539   -0.000103869   -0.000015974
     16        1           0.000020317   -0.000060979   -0.000004957
     17        1           0.000050746    0.000087719   -0.000007956
     18        1          -0.000005124   -0.000036732    0.000117580
     19        1          -0.000105690    0.000105618    0.000070680
     20        1          -0.000085396    0.000001585   -0.000097691
     21        1           0.000097136   -0.000002265    0.000047408
     22        1          -0.000171350    0.000000005    0.000161093
 -------------------------------------------------------------------
 Cartesian Forces:  Max     0.000834952 RMS     0.000247716

 GradGradGradGradGradGradGradGradGradGradGradGradGradGradGradGradGradGrad
 Berny optimization.
 Using GEDIIS/GDIIS optimizer.
 FormGI is forming the generalized inverse of G from B-inverse, IUseBI=4.
 Internal  Forces:  Max     0.001089971 RMS     0.000173209
 Search for a local minimum.
 Step number   2 out of a maximum of  132
 All quantities printed in internal units (Hartrees-Bohrs-Radians)
 Mixed Optimization -- En-DIIS/RFO-DIIS
 Swapping is turned off.
 Update second derivatives using D2CorX and points    1    2
 DE= -1.92D-04 DEPred=-2.29D-04 R= 8.41D-01
 TightC=F SS=  1.41D+00  RLast= 6.71D-02 DXNew= 5.0454D-01 2.0137D-01
 Trust test= 8.41D-01 RLast= 6.71D-02 DXMaxT set to 3.00D-01
 ITU=  1  0
     Eigenvalues ---    0.00400   0.00921   0.01104   0.01255   0.01543
     Eigenvalues ---    0.01636   0.01812   0.01832   0.02594   0.02930
     Eigenvalues ---    0.03547   0.03990   0.04174   0.04345   0.04709
     Eigenvalues ---    0.04942   0.05056   0.05340   0.05517   0.05588
     Eigenvalues ---    0.05741   0.06351   0.06661   0.07048   0.07614
     Eigenvalues ---    0.08282   0.09410   0.09741   0.11425   0.12538
     Eigenvalues ---    0.15632   0.15873   0.15994   0.16003   0.16168
     Eigenvalues ---    0.18759   0.21774   0.22168   0.23763   0.24910
     Eigenvalues ---    0.26268   0.27190   0.27660   0.29363   0.30048
     Eigenvalues ---    0.32044   0.33073   0.33860   0.33874   0.34005
     Eigenvalues ---    0.34256   0.34420   0.34428   0.34513   0.35168
     Eigenvalues ---    0.35200   0.35402   0.35457   0.49755   0.54298
 En-DIIS/RFO-DIIS/Sim-DIIS IScMMF=       -3 using points:     2    1
 RFO step:  Lambda=-2.86183717D-05.
 DidBck=F Rises=F RFO-DIIS coefs:    0.89422    0.10578
 Iteration  1 RMS(Cart)=  0.00250572 RMS(Int)=  0.00000326
 Iteration  2 RMS(Cart)=  0.00000386 RMS(Int)=  0.00000151
 Iteration  3 RMS(Cart)=  0.00000000 RMS(Int)=  0.00000151
 Variable       Old X    -DE/DX   Delta X   Delta X   Delta X     New X
                                 (Linear)    (Quad)   (Total)
    R1        2.52570  -0.00015   0.00067  -0.00099  -0.00031   2.52539
    R2        2.86961   0.00024   0.00037   0.00036   0.00073   2.87034
    R3        2.04464   0.00003   0.00050  -0.00062  -0.00012   2.04452
    R4        2.87420   0.00025   0.00035   0.00025   0.00060   2.87480
    R5        2.04476   0.00001   0.00050  -0.00066  -0.00016   2.04460
    R6        2.96044   0.00109   0.00112   0.00212   0.00323   2.96367
    R7        2.92445   0.00002   0.00043  -0.00040   0.00003   2.92447
    R8        2.05937  -0.00004   0.00061  -0.00094  -0.00033   2.05904
    R9        2.96934   0.00008   0.00049  -0.00120  -0.00071   2.96863
   R10        2.92545   0.00057   0.00093   0.00040   0.00134   2.92679
   R11        2.06207  -0.00003   0.00063  -0.00095  -0.00032   2.06175
   R12        2.97802   0.00099   0.00108   0.00152   0.00260   2.98062
   R13        2.83721   0.00040   0.00069   0.00018   0.00088   2.83808
   R14        2.06927  -0.00002   0.00065  -0.00095  -0.00030   2.06897
   R15        2.92339   0.00001   0.00045  -0.00021   0.00025   2.92363
   R16        2.05868  -0.00005   0.00061  -0.00096  -0.00035   2.05833
   R17        2.51608   0.00042   0.00083  -0.00046   0.00037   2.51645
   R18        2.04925   0.00007   0.00047  -0.00048  -0.00001   2.04924
   R19        2.85190   0.00022   0.00046  -0.00001   0.00045   2.85234
   R20        2.04978   0.00007   0.00046  -0.00047  -0.00001   2.04977
   R21        2.07048  -0.00003   0.00053  -0.00081  -0.00028   2.07021
   R22        2.07154  -0.00010   0.00047  -0.00089  -0.00042   2.07112
   R23        2.06264   0.00011   0.00046  -0.00036   0.00009   2.06273
   R24        2.06747  -0.00016   0.00049  -0.00108  -0.00059   2.06688
    A1        1.87936   0.00002  -0.00007   0.00015   0.00008   1.87944
    A2        2.21699   0.00000   0.00012  -0.00014  -0.00002   2.21697
    A3        2.18049  -0.00002   0.00004  -0.00015  -0.00011   2.18038
    A4        1.87844   0.00002  -0.00009  -0.00012  -0.00022   1.87822
    A5        2.21624  -0.00000   0.00010  -0.00020  -0.00011   2.21613
    A6        2.18295  -0.00003   0.00004  -0.00026  -0.00022   2.18273
    A7        1.87341   0.00031   0.00114   0.00207   0.00321   1.87662
    A8        1.74858  -0.00029  -0.00058  -0.00294  -0.00352   1.74506
    A9        2.02666  -0.00004  -0.00018  -0.00045  -0.00063   2.02603
   A10        1.74312   0.00017   0.00011   0.00198   0.00209   1.74521
   A11        1.98990  -0.00010  -0.00010  -0.00005  -0.00015   1.98975
[...]
 8846,-0.00593982,0.02555341,0.00390006,-0.00423943,-0.00035461,-0.0024
 2441,-0.00253502,-0.00386916,0.00167358,0.00034644,0.00080682,-0.00006
 607,0.00003705,0.00012849,0.00017397,0.00077571,0.00020155,-0.00088148
 ,0.00759205,-0.01705553,-0.00584270,0.00034316,-0.00007768,-0.00018655
 ,-0.00001487,0.00009081,0.00003571,0.06892881,0.00062508,-0.00046435,-
 0.00053488,0.00020163,-0.00348669,0.00080059,0.06983892,-0.28901500,-0
 .03603618,-0.00063530,-0.00260131,-0.00072598,-0.00025481,0.00025995,0
 .00005444,-0.00203935,-0.00301819,0.00130307,-0.00007083,0.00004594,0.
 00025333,0.00016365,-0.00003301,-0.00016179,0.00029121,0.00004681,0.00
 020672,0.00712477,-0.01236164,-0.00430498,-0.00004729,-0.00022959,-0.0
 0000453,-0.00006864,0.00015946,-0.00064633,-0.07635980,0.31077449,0.00
 051101,-0.00220444,-0.00624109,0.00777025,-0.02904687,0.00078386,0.011
 79322,-0.03532138,-0.05449666,-0.00209985,0.01208326,0.00138113,-0.002
 06340,0.00144339,-0.00042189,0.00156629,0.00214436,-0.00193342,0.00008
 548,0.00055084,-0.00007933,-0.00008993,0.00003533,0.00007497,0.0002173
 9,0.00000182,-0.00018235,-0.00634984,0.01130553,0.00211483,-0.00103781
 ,-0.00162511,0.00007927,-0.00018486,0.00117035,0.00083684,-0.00967109,
 0.03964875,0.05621337,-0.00036235,-0.00089838,-0.00077092,-0.00452958,
 0.00098169,-0.00067865,-0.00345327,-0.01008036,-0.02668312,-0.04519227
 ,-0.00342804,-0.00483612,0.00062125,0.00045047,0.00029683,-0.00134562,
 -0.00011064,-0.00085788,-0.00043750,0.00051781,0.00008012,-0.00241802,
 -0.00121752,0.00178323,-0.00139704,0.00818907,0.02420414,0.00147313,0.
 00030564,-0.00052912,0.00069674,-0.00016707,0.00014758,0.00000521,-0.0
 0020372,-0.00054574,0.00143023,0.00028675,0.00062098,0.05598512,0.0003
 1732,-0.00011426,0.00138449,0.00211971,0.00029616,0.00047075,0.0017218
 2,0.00390060,0.01078751,-0.00288065,-0.08081955,-0.09252978,-0.0013144
 4,-0.01135561,-0.02745702,0.00035908,-0.00334170,-0.00022522,-0.000791
 00,-0.00340778,-0.00006478,-0.00028199,-0.00105945,0.00080607,-0.00168
 484,0.00393551,0.00953648,-0.00020557,0.00002769,-0.00062433,-0.000190
 20,0.00007402,-0.00004285,-0.00007188,0.00009595,0.00013999,-0.0009182
 4,0.00036643,-0.00001634,0.00432967,0.08918276,-0.00034244,0.00040569,
 -0.00026815,-0.00264232,0.00057461,-0.00009091,-0.00113345,-0.00496349
 ,-0.01360125,-0.00427646,-0.09334076,-0.27389151,0.00057355,0.00393533
 ,0.00334092,-0.00048416,0.00063600,0.00017739,0.00022609,0.00038338,0.
 00023557,0.00103206,0.00109855,-0.00080182,-0.00092590,-0.00517543,-0.
 01237875,0.00088548,-0.00007440,-0.00009891,0.00028764,-0.00007675,0.0
 0012668,-0.00004744,-0.00015108,-0.00024690,0.00014178,0.00059500,0.00
 049852,0.00530722,0.09682082,0.29360415,-0.00475978,-0.00078578,-0.000
 54772,-0.00016031,0.00085007,-0.00079341,-0.00126245,0.00030441,-0.000
 92422,-0.00007747,-0.00062792,0.00117659,-0.04228171,0.00254767,0.0021
 9149,-0.00392144,0.00913397,-0.02761051,-0.00175040,-0.01169011,0.0266
 0975,-0.00244859,0.00235489,0.00154841,-0.00004312,-0.00038115,0.00143
 839,0.00167569,-0.00041099,-0.00040838,0.00004133,0.00017712,-0.000523
 23,0.00067698,0.00012552,0.00011418,-0.00006843,0.00008844,-0.00002846
 ,0.00058653,0.00009250,-0.00007619,0.05390439,-0.00192001,0.00055848,-
 0.00018704,-0.00012135,-0.00015157,-0.00127802,-0.00056409,-0.00335943
 ,0.00024525,0.00031572,-0.00932637,0.02473955,0.00428692,-0.07943315,0
 .08497743,-0.00222600,0.00291750,-0.00919595,-0.00200198,0.00578229,-0
 .00990481,0.00144130,-0.00059559,-0.00092690,0.00058833,-0.00290263,0.
 00157200,0.00010070,0.00007708,0.00062255,0.00013466,0.00000913,-0.000
 06434,0.00014651,0.00006655,0.00003450,0.00087704,-0.00027416,0.000538
 41,-0.00018829,0.00160289,-0.00026251,-0.00052575,0.08490788,-0.002725
 42,-0.00052340,0.00005661,-0.00021791,-0.00043333,-0.00018763,-0.00048
 858,-0.00056606,0.00014605,0.00034605,-0.00329118,0.00323958,0.0003494
 6,0.08790417,-0.26563415,-0.00184299,0.00465938,-0.01453286,0.00233669
 ,0.00627738,-0.01381684,0.00141698,-0.00192940,-0.00110551,-0.00022075
 ,-0.00024221,-0.00056531,0.00104100,0.00001470,-0.00002977,0.00000201,
 0.00015136,-0.00024944,0.00030210,0.00005645,0.00013144,-0.00000076,-0
 .00001209,0.00001450,-0.00006946,0.00044683,0.00153057,-0.00121904,-0.
 09243023,0.28844065,-0.00141041,0.00047561,-0.00097211,0.00072255,-0.0
 0018399,0.00077423,-0.00231970,0.00379166,0.00157805,-0.00387908,0.000
 43755,-0.00215023,-0.00709739,-0.02451346,0.00474373,-0.07509397,-0.08
 284688,0.01748455,0.00100746,-0.00022158,-0.00075546,-0.00021533,-0.00
 026612,0.00041675,-0.00005871,-0.00056902,-0.00036896,0.00804057,0.015
 78329,-0.00597674,-0.00005784,-0.00007561,0.00009458,0.00032951,0.0000
 4112,-0.00020277,0.00112384,0.00077991,-0.00038576,-0.00004923,-0.0008
 8997,-0.00000794,0.00144097,0.00081551,0.00015344,0.07756293,-0.000012
 80,-0.00264793,-0.00075019,-0.00070631,-0.00033831,0.00030356,0.002046
 42,-0.00344445,-0.00141592,0.00055074,0.00012640,0.00012803,0.00080993
 ,-0.00126547,0.00059956,-0.08145967,-0.27970222,0.04201553,-0.00030264
 ,-0.00012685,-0.00026876,-0.00014773,0.00005217,0.00011558,-0.00003790
 ,0.00002365,-0.00024336,-0.00852405,-0.01297041,0.00507107,0.00006860,
 0.00014430,0.00065989,-0.00002213,-0.00018103,0.00002118,-0.00091581,-
 0.00080651,0.00045940,-0.00009295,-0.00018326,0.00000931,-0.00033405,0
 .00034893,-0.00056643,0.08900474,0.30016705,0.00944378,0.02861840,0.00
 016609,0.00061448,0.00201742,-0.00631781,0.00137683,-0.00223170,-0.001
 81052,-0.00198148,-0.00130594,-0.00029767,-0.00264038,-0.01169636,0.00
 161702,0.01628643,0.04106561,-0.05679113,0.00032447,0.00014144,-0.0002
 0142,-0.00012215,-0.00016459,0.00014261,-0.00007936,-0.00030647,-0.000
 16392,-0.00682187,-0.01052754,0.00232367,-0.00026625,-0.00112254,0.000
 85167,-0.00095081,0.00169096,0.00005115,-0.00039396,-0.00039847,0.0006
 7266,-0.00002142,-0.00052876,0.00001675,0.00059660,-0.00001235,0.00050
 431,-0.01467521,-0.04614684,0.05850064,-0.00009366,-0.00017734,-0.0001
 2635,0.00004997,-0.00001333,0.00007256,0.00004690,0.00057675,0.0001403
 3,-0.00257007,0.00024449,0.00342646,0.00014913,0.02139084,0.00050904,0
 .00106666,-0.00031467,-0.00026414,-0.06677237,0.06594309,0.01965126,0.
 00845184,-0.01757502,-0.00268729,0.00129240,-0.00215967,0.00643047,0.0
 0008904,0.00006624,0.00006776,-0.00007992,0.00003249,-0.00017878,0.000
 00056,-0.00001428,-0.00005551,-0.00027712,0.00007815,-0.00016879,-0.00
 006638,0.00105836,-0.00015639,0.00030510,-0.00048542,0.00047005,-0.000
 38960,-0.00018435,-0.00004604,0.05964146,0.00006990,-0.00004009,-0.000
 10383,-0.00001950,0.00002113,-0.00001204,-0.00012466,-0.00011359,-0.00
 024839,-0.00059878,0.00009813,0.00027707,-0.00221156,-0.00130757,0.001
 17853,0.00015656,-0.00016280,-0.00031331,0.06160338,-0.31010095,-0.041
 73515,0.01004058,-0.01556040,-0.00668377,-0.00152234,-0.00143187,0.001
 02050,0.00026396,0.00003101,0.00013756,0.00000678,0.00004871,0.0001315
 4,-0.00002146,0.00000413,0.00000909,0.00010543,0.00003128,0.00004200,0
 .00017255,-0.00022268,-0.00004064,0.00050346,-0.00004478,-0.00041430,0
 .00022803,0.00006947,0.00004597,-0.06854903,0.32933820,0.00003730,0.00
 009900,0.00000041,0.00001486,-0.00012002,-0.00010657,0.00004740,-0.000
 69378,-0.00009517,0.00307882,-0.00027869,0.00002998,-0.00007879,-0.013
 36986,0.00079251,0.00006746,-0.00012830,0.00010403,0.02019890,-0.04457
 822,-0.04979212,-0.00259341,0.01075222,0.00640024,0.00643906,0.0012976
 9,0.00752672,0.00005207,-0.00011662,0.00003748,-0.00005040,-0.00002262
 ,-0.00000435,-0.00000917,-0.00000394,0.00001648,0.00028645,-0.00001008
 ,0.00014053,0.00005096,-0.00030462,-0.00006990,-0.00072080,0.00062443,
 0.00009985,0.00016301,0.00010391,0.00004578,-0.02351474,0.04662782,0.0
 3886374,-0.00008088,0.00000779,-0.00010848,-0.00001440,-0.00000417,-0.
 00004015,0.00023057,0.00011599,0.00036143,0.00036725,0.00029225,0.0011
 5510,0.00306630,-0.00142149,0.00606425,0.00057906,-0.00042070,-0.00039
 902,-0.00757724,0.00579513,0.00811320,-0.24519277,0.01366608,0.1339908
 1,-0.00350822,-0.00319775,0.00291157,0.00018109,0.00002807,0.00003603,
 -0.00000742,-0.00002127,-0.00006112,-0.00000714,0.00002396,-0.00003278
 ,-0.00007738,0.00003067,-0.00004795,-0.00053358,-0.00003690,0.00016978
 ,-0.00169281,0.00028185,0.00073970,-0.00001838,-0.00000556,-0.00003427
 ,-0.00124665,-0.00040271,-0.00295315,0.25551129,0.00007083,-0.00000831
 ,0.00020648,-0.00007669,0.00000470,-0.00020140,0.00024701,0.00038312,-
 0.00074420,0.00119521,-0.00471894,-0.00105376,-0.00139149,-0.00393151,
 0.00089434,-0.00021075,0.00048892,0.00053551,-0.02188068,0.00722999,0.
 01382304,0.01774459,-0.05844159,-0.01121711,0.01984181,0.00466702,-0.0
 1262910,0.00001049,-0.00019699,0.00003040,-0.00000397,0.00003817,-0.00
 002575,0.00001018,0.00002345,0.00003292,-0.00000092,0.00000463,-0.0000
 0058,0.00094912,0.00027556,-0.00047741,-0.00065330,0.00036459,0.000397
 40,0.00001895,0.00001958,0.00002358,0.00081485,0.00073652,-0.00046821,
 -0.01545278,0.05201411,-0.00017011,0.00002283,-0.00024330,-0.00005053,
 -0.00005005,-0.00008273,0.00020304,0.00031998,-0.00043239,0.00079394,-
 0.00041199,0.00165866,0.00582081,0.00077323,0.00858315,0.00091369,-0.0
 0067349,-0.00175834,0.00735838,-0.00386364,0.00013910,0.13430881,-0.00
 853454,-0.12463691,0.00340670,0.00226319,-0.00109695,0.00100723,0.0000
 0624,0.00049642,-0.00001503,0.00002433,0.00000761,-0.00002696,-0.00000
 413,0.00002146,0.00007795,-0.00005516,0.00003182,0.00000606,-0.0001916
 1,-0.00004329,-0.00150807,0.00056382,0.00063822,0.00023200,0.00007510,
 0.00006023,-0.00287835,0.00030267,-0.00388510,-0.14976136,0.01015525,0
 .12069774,-0.00008664,0.00016457,-0.00004978,-0.00003285,-0.00000824,0
 .00069401,-0.00149374,-0.00213643,0.00189829,-0.01486893,-0.01098417,-
 0.01412810,-0.00188835,0.00034870,0.00056634,-0.00013733,-0.00079629,0
 .00009215,-0.00099244,0.00174401,0.00052913,0.01244277,0.00665854,0.00
 923993,-0.14638872,-0.08067796,-0.09040237,-0.00086994,0.00009985,-0.0
 0043209,0.00000559,-0.00003999,-0.00005214,0.00011231,-0.00001344,0.00
 001829,-0.00014759,0.00014774,-0.00002547,0.00135688,0.00062190,-0.000
 04693,0.00005309,-0.00011413,-0.00000840,-0.00022129,-0.00009581,-0.00
 010169,-0.00034530,0.00014310,-0.00117810,-0.00011737,-0.00092960,-0.0
 0036111,0.15866821,0.00008629,-0.00012180,0.00016287,0.00006212,0.0000
 9844,0.00016786,0.00035276,-0.00005426,0.00037394,-0.00231665,-0.00250
 694,-0.00285498,-0.00110359,-0.00075722,-0.00118771,-0.00040780,-0.000
 16346,0.00030960,0.00283678,-0.00187855,-0.00165836,-0.01812902,-0.019
 02706,-0.01597846,-0.08377719,-0.11052277,-0.07531813,-0.00001310,-0.0
 0007299,-0.00018077,0.00004181,0.00001468,0.00000584,0.00002771,0.0000
 8681,-0.00011311,-0.00006109,0.00003641,-0.00002722,0.00022514,0.00100
 857,0.00036613,-0.00005388,-0.00004862,0.00005694,-0.00013666,-0.00002
 135,-0.00006995,0.00082994,-0.00066940,0.00221165,0.00067755,0.0003641
 4,0.00014996,0.08984213,0.12409558,0.00014060,0.00031788,-0.00023857,-
 0.00033981,-0.00032633,-0.00034648,0.00101322,0.00070296,-0.00072841,0
 .01197445,0.00922159,0.00842077,0.00067266,0.00015957,-0.00067329,0.00
 065878,0.00076275,0.00055492,0.00136469,-0.00063048,-0.00082169,-0.004
 85922,-0.00412069,-0.00367809,-0.09345595,-0.07611495,-0.13053483,0.00
 017306,-0.00003769,0.00011184,-0.00004683,0.00001222,0.00001677,0.0000
 8608,-0.00009452,0.00019403,0.00003559,-0.00000193,0.00002580,0.000046
 02,0.00009844,0.00182774,-0.00006227,0.00009061,0.00007847,0.00012233,
 0.00004771,0.00012450,0.00009687,-0.00006563,0.00051527,0.00035765,-0.
 00021559,0.00009232,0.09893324,0.08322782,0.14179136,0.00070401,-0.000
 42107,0.00002153,-0.00065063,0.00048754,-0.00081475,0.00134358,0.00003
 799,0.00014586,0.00481964,-0.01487752,0.02004943,-0.00262852,-0.000395
 82,0.00282988,0.00022081,-0.00002902,0.00038590,-0.00119575,0.00164571
 ,0.00040868,-0.00180242,0.00674509,-0.01186385,-0.05716321,0.03056741,
 -0.04181746,0.00034591,0.00004962,0.00014114,-0.00014110,0.00002940,-0
 .00005621,-0.00077144,-0.00040599,-0.00042424,-0.00005517,0.00016658,0
 .00002215,-0.00203438,-0.00093889,0.00171649,0.00005019,-0.00126037,-0
 .00013798,-0.00009630,0.00002404,-0.00012768,0.00081728,0.00009609,0.0
 0059414,0.00009268,-0.00032323,0.00038969,-0.00484346,0.01103795,-0.01
 698911,0.06293830,0.00035821,-0.00041954,0.00010019,-0.00017260,0.0003
 4343,0.00027126,0.00036965,0.00110837,0.00024018,0.00133492,-0.0028397
 9,0.00321491,0.00062703,-0.00128956,0.00155217,0.00009674,-0.00000357,
 0.00004333,0.00254369,-0.00209415,-0.00124408,0.00514860,-0.01928207,0
 .02280411,0.02827875,-0.12068162,0.11324704,0.00006148,0.00004540,-0.0
 0007823,-0.00001721,0.00000980,-0.00001405,-0.00011776,0.00031426,-0.0
 0039112,-0.00035987,-0.00003768,-0.00017524,-0.00005241,-0.00023362,0.
 00001378,-0.00066863,-0.00042878,0.00014093,-0.00006435,0.00002718,-0.
 00011685,-0.00155079,-0.00070884,-0.00159189,0.00013654,0.00046743,-0.
 00072195,-0.00358706,0.01009368,-0.01319119,-0.03232111,0.13554313,0.0
 0070708,-0.00022346,-0.00014208,-0.00016749,0.00030961,-0.00010199,-0.
 00154894,-0.00028727,0.00065831,-0.00170020,0.00626294,-0.01130058,-0.
 00013371,-0.00045155,-0.00074779,0.00014504,0.00013920,0.00052574,-0.0
 0026737,-0.00165180,-0.00101307,0.00182936,-0.00445457,0.01135072,-0.0
 4003032,0.11222811,-0.20716046,-0.00018562,-0.00015862,-0.00017901,-0.
 00018651,-0.00000559,-0.00001115,-0.00057544,-0.00028387,0.00028140,0.
 00045459,-0.00019856,0.00001515,0.00185607,0.00114241,-0.00085381,0.00
 019384,0.00055615,0.00031992,0.00011251,-0.00001334,0.00004342,-0.0006
 6965,-0.00016165,-0.00060932,-0.00022633,0.00092131,0.00002338,-0.0053
 5514,0.01038702,-0.01671903,0.04571025,-0.12402164,0.22549561,0.001293
 87,0.00084466,-0.00077426,0.00126407,-0.00095938,-0.00082390,-0.012809
 99,0.00247929,-0.00550540,-0.00229349,-0.00104413,0.00226217,-0.002200
 91,0.00096197,0.00201298,-0.01145932,-0.00162078,-0.00485228,-0.000129
 14,-0.00028355,-0.00103254,-0.00050129,-0.00010194,0.00044564,-0.00031
 559,0.00040270,-0.00101331,-0.27709353,0.00620868,-0.08455360,-0.00005
 402,-0.00001223,0.00015920,-0.00005065,0.00002295,0.00016487,0.0003875
 1,-0.00040762,0.00002079,0.00016373,-0.00005642,-0.00017571,0.00017348
 ,0.00004987,-0.00017891,0.00036130,0.00040165,0.00004933,-0.00013163,0
 .00008976,0.00009223,0.00000453,0.00002688,0.00029424,-0.00021417,-0.0
 0002815,0.00008529,-0.00001300,-0.00009530,0.00007604,0.30171837,0.000
 21146,-0.00049519,0.00116661,-0.00031252,-0.00039719,-0.00112241,-0.02
 253945,0.00205300,-0.00819385,-0.00291840,-0.00297532,0.00304538,0.003
 05221,-0.00344562,-0.00294769,0.02360599,0.00069788,0.00831316,0.00117
 728,0.00114019,0.00110100,0.00019459,-0.00081871,-0.00016284,-0.001060
 63,0.00078988,-0.00083436,0.00623839,-0.04434813,0.00230182,-0.0001315
 2,0.00004074,-0.00008376,0.00013462,0.00003517,0.00008276,0.00078718,0
 .00033474,-0.00063724,0.00021967,-0.00010373,0.00010312,-0.00025932,-0
 .00008697,-0.00011223,-0.00079901,0.00039669,0.00063290,-0.00001578,-0
 .00003611,-0.00002693,-0.00009960,0.00028372,-0.00017242,-0.00040147,0
 .00004474,0.00016036,0.00011720,0.00005872,-0.00005501,-0.00681037,0.0
 4712783,0.00135969,-0.00045653,0.00106829,0.00139215,0.00038306,0.0011
 6980,0.00951507,-0.00164728,0.00149367,0.00138544,0.00032843,-0.000678
 71,0.00145174,-0.00031693,-0.00049388,0.00897412,0.00101315,0.00125670
 ,0.00057120,-0.00002384,0.00052311,0.00008366,0.00006172,0.00012482,0.
 00060529,-0.00000068,0.00052400,-0.08915922,0.00232720,-0.08326500,-0.
 00013172,-0.00005649,0.00007475,-0.00011898,0.00006439,0.00007046,-0.0
 0045071,-0.00025079,0.00025937,0.00022757,0.00015108,0.00028744,0.0002
 0684,-0.00013533,0.00027855,-0.00041589,0.00027155,0.00024348,-0.00005
 057,-0.00000860,0.00001218,-0.00014062,0.00000706,-0.00018137,0.000097
 91,-0.00003199,-0.00003461,-0.00005492,0.00000222,0.00006001,0.0929992
 5,-0.00246082,0.08617707,0.00000397,0.00208782,0.00214398,-0.00032213,
 -0.00215953,0.00223028,-0.00068120,0.00265467,0.01385942,0.00015291,-0
 .00035972,0.00085934,0.00010547,0.00040106,0.00091603,-0.00089379,-0.0
 0215550,0.01252800,0.00029681,-0.00000354,-0.00018795,0.00009814,-0.00
 004545,0.00000505,0.00022585,-0.00002560,-0.00008700,-0.05324896,0.000
 08783,-0.00639210,-0.00037782,-0.00036569,0.00061783,-0.00037081,0.000
 42344,0.00066934,0.00037961,0.00006014,-0.00045435,-0.00049959,-0.0003
 5936,-0.00002477,-0.00044124,0.00036899,-0.00004726,0.00031813,-0.0000
 6435,-0.00042936,0.00006233,-0.00002955,-0.00002410,0.00004148,-0.0000
 0650,-0.00004104,0.00000928,0.00000694,-0.00000734,0.00006297,0.000051
 45,-0.00003805,0.00189989,-0.00039050,-0.02834730,0.05317871,0.0031784
 7,-0.00324664,-0.00120314,-0.00322850,-0.00286263,0.00107689,0.0002650
 0,0.00199626,0.02384339,0.00102415,0.00049443,0.00082671,-0.00101232,0
 .00051395,-0.00092078,-0.00004010,0.00156828,-0.02493453,-0.00021956,-
 0.00033023,0.00014837,-0.00001768,0.00018878,-0.00009318,0.00010917,-0
 .00028392,-0.00005731,0.00012931,-0.04674056,-0.00271463,0.00022830,0.
 00068574,-0.00111583,-0.00018538,0.00068108,0.00104690,0.00080590,0.00
 026798,-0.00036902,-0.00018821,0.00007550,-0.00037927,0.00021280,0.000
 01673,0.00041531,-0.00080974,0.00031238,0.00039207,0.00000449,0.000020
 49,-0.00000294,0.00000706,-0.00006829,0.00002239,0.00001405,0.00000139
 ,-0.00000292,-0.00003162,0.00000782,0.00002020,-0.00006854,-0.00029636
 ,0.00077942,-0.00017705,0.04699781,0.00113697,-0.00055537,-0.00189997,
 0.00130198,0.00052757,-0.00191393,-0.00168354,-0.00205149,-0.00900904,
 -0.00106582,-0.00009179,-0.00008418,-0.00105443,0.00013655,-0.00003229
 ,-0.00146104,0.00184040,-0.00854129,0.00033228,-0.00008098,0.00036122,
 -0.00015952,-0.00005612,0.00026559,0.00020978,0.00015590,0.00026058,-0
 .00199879,-0.00287482,-0.30250061,0.00069538,0.00026947,-0.00032974,0.
 00068265,-0.00031766,-0.00034898,0.00003655,0.00047986,0.00021209,0.00
 036564,0.00020043,0.00069946,0.00034620,-0.00016723,0.00064279,0.00003
 588,-0.00047654,0.00021848,-0.00006821,0.00001455,-0.00002267,-0.00009
 430,0.00000582,-0.00008973,0.00007203,0.00000105,0.00002121,-0.0001289
 3,-0.00008391,0.00006464,0.00024786,-0.00009757,-0.00897011,0.00225136
 ,0.00322188,0.33099648\\-0.00004099,0.00000899,0.00001998,0.00001673,-
 0.00001004,0.00001480,-0.00000805,-0.00001774,-0.00000813,0.00001147,-
 0.00001684,0.00000410,0.00003875,0.00002609,0.00000725,0.00001132,0.00
 001396,-0.00001053,0.00000989,0.00002841,-0.00001662,-0.00000790,-0.00
 001777,0.00001446,-0.00001150,-0.00000736,-0.00001042,-0.00001292,-0.0
 0000062,-0.00002785,-0.00000010,0.00000400,0.00001046,0.00000283,-0.00
 000476,0.00000711,0.00000298,-0.00000822,-0.00000008,-0.00000116,-0.00
 000042,-0.00000459,-0.00000391,0.00000081,-0.00000623,0.00000641,0.000
 00653,-0.00000291,-0.00000239,0.00000922,0.00000866,-0.00000565,0.0000
 0543,0.00000151,0.00000109,-0.00000771,0.00000482,0.00000040,-0.000006
 40,0.00000934,-0.00000599,-0.00000116,-0.00000237,-0.00000130,-0.00000
 440,-0.00001278\\\@


 I MET A TRAVELLER FROM AN ANTIQUE LAND
 WHO SAID... TWO VAST AND TRUNKLESS LEGS OF STONE
 STAND IN THE DESERT..... NEAR THEM,  ON THE SAND,
 HALF SUNK,  A SHATTERED VISAGE LIES,  WHOSE FROWN,
 AND WRINKLED LIP,  AND SNEER OF COLD COMMAND
 TELL THAT ITS SCULPTOR WELL THOSE PASSIONS READ
 WHICH YET SURVIVE,  STAMPED ON THESE LIFELESS THINGS
 THE HAND THAT MOCKED THEM,  AND THE HEART THAT FED-
 AND ON THE PEDESTAL THESE WORDS APPEAR 
 MY NAME IS OZYMANDIAS, KING OF KINGS--   
 LOOK ON MY WORKS YE MIGHTY AND DESPAIR. 
 NOTHING BESIDE REMAINS,  ROUND THE DECAY 
 OF THAT COLOSSAL WRECK,  BOUNDLESS AND BARE
 THE LONE AND LEVEL SANDS STRETCH FAR AWAY.
                                    SHELLEY
 Job cpu time:       0 days  1 hours 52 minutes 42.8 seconds.
 Elapsed time:       0 days  0 hours  0 minutes 58.7 seconds.
 File lengths (MBytes):  RWF=    203 Int=      0 D2E=      0 Chk=     13 Scr=      2
 Normal termination of Gaussian 16 at Wed Jul 23 23:15:30 2025.
