 Entering Gaussian System, Link 0=g16
 Initial command:
 /home/hongchang/software/g16/l1.exe "/home/hongchang/software/g16/scratch/Gau-14580.inp" -scrdir="/home/hongchang/software/g16/scratch/"
 Entering Link 1 = /home/hongchang/software/g16/l1.exe PID=     14581.
  
 Copyright (c) 1988,1990,1992,1993,1995,1998,2003,2009,2016,
            Gaussian, Inc.  All Rights Reserved.
  
 This is part of the Gaussian(R) 16 program.  It is based on
 the Gaussian(R) 09 system (copyright 2009, Gaussian, Inc.),
 the Gaussian(R) 03 system (copyright 2003, Gaussian, Inc.),
 the Gaussian(R) 98 system (copyright 1998, Gaussian, Inc.),
 the Gaussian(R) 94 system (copyright 1995, Gaussian, Inc.),
 the Gaussian 92(TM) system (copyright 1992, Gaussian, Inc.),
 the Gaussian 90(TM) system (copyright 1990, Gaussian, Inc.),
 the Gaussian 88(TM) system (copyright 1988, Gaussian, Inc.),
 the Gaussian 86(TM) system (copyright 1986, Carnegie Mellon
 University), and the Gaussian 82(TM) system (copyright 1983,
 Carnegie Mellon University). Gaussian is a federally registered
 trademark of Gaussian, Inc.
  
 This software contains proprietary and confidential information,
 including trade secrets, belonging to Gaussian, Inc.
  
 This software is provided under written license and may be
 used, copied, transmitted, or stored only in accord with that
 written license.
  
 The following legend is applicable only to US Government
 contracts under FAR:
  
                    RESTRICTED RIGHTS LEGEND
  
 Use, reproduction and disclosure by the US Government is
 subject to restrictions as set forth in subparagraphs (a)
 and (c) of the Commercial Computer Software - Restricted
 Rights clause in FAR 52.227-19.
  
 Gaussian, Inc.
 340 Quinnipiac St., Bldg. 40, Wallingford CT 06492
  
  
 ---------------------------------------------------------------
 Warning -- This program may not be used in any manner that
 competes with the business of Gaussian, Inc. or will provide
 assistance to any competitor of Gaussian, Inc.  The licensee
 of this program is prohibited from giving any competitor of
 Gaussian, Inc. access to this program.  By using this program,
 the user acknowledges that Gaussian, Inc. is engaged in the
 business of creating and licensing software in the field of
 computational chemistry and represents and warrants to the
 licensee that it is not a competitor of Gaussian, Inc. and that
 it will not use this program in any manner prohibited above.
 ---------------------------------------------------------------
  

 Cite this work as:
 Gaussian 16, Revision A.03,
 M. J. Frisch, G. W. Trucks, H. B. Schlegel, G. E. Scuseria, 
 M. A. Robb, J. R. Cheeseman, G. Scalmani, V. Barone, 
 G. A. Petersson, H. Nakatsuji, X. Li, M. Caricato, A. V. Marenich, 
 J. Bloino, B. G. Janesko, R. Gomperts, B. Mennucci, H. P. Hratchian, 
 J. V. Ortiz, A. F. Izmaylov, J. L. Sonnenberg, D. Williams-Young, 
 F. Ding, F. Lipparini, F. Egidi, J. Goings, B. Peng, A. Petrone, 
 T. Henderson, D. Ranasinghe, V. G. Zakrzewski, J. Gao, N. Rega, 
 G. Zheng, W. Liang, M. Hada, M. Ehara, K. Toyota, R. Fukuda, 
 J. Hasegawa, M. Ishida, T. Nakajima, Y. Honda, O. Kitao, H. Nakai, 
 T. Vreven, K. Throssell, J. A. Montgomery, Jr., J. E. Peralta, 
 F. Ogliaro, M. J. Bearpark, J. J. Heyd, E. N. Brothers, K. N. Kudin, 
 V. N. Staroverov, T. A. Keith, R. Kobayashi, J. Normand, 
 K. Raghavachari, A. P. Rendell, J. C. Burant, S. S. Iyengar, 
 J. Tomasi, M. Cossi, J. M. Millam, M. Klene, C. Adamo, R. Cammi, 
 J. W. Ochterski, R. L. Martin, K. Morokuma, O. Farkas, 
 J. B. Foresman, and D. J. Fox, Gaussian, Inc., Wallingford CT, 2016.
 
 ******************************************
 Gaussian 16:  ES64L-G16RevA.03 25-Dec-2016
                23-Jul-2025 
 ******************************************
 %nproc=128
 Will use up to  128 processors via shared memory.
 %mem=1024GB
 %chk=03.chk
 ---------------------------------------------------------------
 # opt freq b3lyp/6-311g(d,p) em=gd3bj scrf(solvent=Cis-Decalin)
 ---------------------------------------------------------------
 1/18=20,19=15,26=3,38=1/1,3;
 2/9=110,12=2,17=6,18=5,40=1/2;
 3/5=4,6=6,7=101,11=2,25=1,30=1,70=2201,71=1,72=99,74=-5,124=41/1,2,3;
 4//1;
 5/5=2,38=5,53=99/2;
 6/7=2,8=2,9=2,10=2,28=1/1;
 7//1,2,3,16;
 1/18=20,19=15,26=3/3(2);
 2/9=110/2;
 99//99;
 2/9=110/2;
 3/5=4,6=6,7=101,11=2,25=1,30=1,70=2205,71=1,72=99,74=-5,124=41/1,2,3;
 4/5=5,16=3,69=1/1;
 5/5=2,38=5,53=99/2;
 7//1,2,3,16;
 1/18=20,19=15,26=3/3(-5);
 2/9=110/2;
 6/7=2,8=2,9=2,10=2,19=2,28=1/1;
 99/9=1/99;
 --
 03
 --
 Symbolic Z-matrix:
 Charge =  0 Multiplicity = 1
 C                     2.14373  -0.64116  -0.39845 
 C                     2.11231   0.69832  -0.39024 
 C                     0.84004   1.124     0.33409 
 C                    -0.34909   0.77335  -0.6285 
 C                    -0.31246  -0.80302  -0.64623 
 C                     0.89254  -1.13194   0.32007 
 C                    -1.67497  -1.20157  -0.13977 
 C                    -2.44882  -0.15344   0.15417 
 C                    -1.76272   1.16621  -0.10891 
 C                     0.73056  -0.01519   1.37697 
 H                     2.85417  -1.27946  -0.91324 
 H                     2.79214   1.37491  -0.89743 
 H                     0.81933   2.15011   0.70993 
 H                    -0.17305   1.19987  -1.61893 
 H                    -0.11642  -1.22203  -1.64009 
 H                     0.91076  -2.16376   0.67906 
 H                    -1.96976  -2.24148  -0.02512 
 H                    -3.462    -0.21704   0.54267 
 H                    -1.71168   1.78361   0.79954 
 H                    -2.31349   1.76417  -0.84733 
 H                     1.54822  -0.00052   2.10263 
 H                    -0.22814  -0.04736   1.90283 
 

 GradGradGradGradGradGradGradGradGradGradGradGradGradGradGradGradGradGrad
 Berny optimization.
 Initialization pass.
                           ----------------------------
                           !    Initial Parameters    !
                           ! (Angstroms and Degrees)  !
 --------------------------                            --------------------------
 ! Name  Definition              Value          Derivative Info.                !
 --------------------------------------------------------------------------------
 ! R1    R(1,2)                  1.3399         estimate D2E/DX2                !
 ! R2    R(1,6)                  1.524          estimate D2E/DX2                !
 ! R3    R(1,11)                 1.085          estimate D2E/DX2                !
 ! R4    R(2,3)                  1.5246         estimate D2E/DX2                !
 ! R5    R(2,12)                 1.085          estimate D2E/DX2                !
 ! R6    R(3,4)                  1.5696         estimate D2E/DX2                !
 ! R7    R(3,10)                 1.5483         estimate D2E/DX2                !
 ! R8    R(3,13)                 1.093          estimate D2E/DX2                !
 ! R9    R(4,5)                  1.5769         estimate D2E/DX2                !
 ! R10   R(4,9)                  1.5565         estimate D2E/DX2                !
 ! R11   R(4,14)                 1.0926         estimate D2E/DX2                !
 ! R12   R(5,6)                  1.5792         estimate D2E/DX2                !
 ! R13   R(5,7)                  1.5072         estimate D2E/DX2                !
 ! R14   R(5,15)                 1.0962         estimate D2E/DX2                !
 ! R15   R(6,10)                 1.5461         estimate D2E/DX2                !
 ! R16   R(6,16)                 1.0926         estimate D2E/DX2                !
 ! R17   R(7,8)                  1.3356         estimate D2E/DX2                !
 ! R18   R(7,17)                 1.087          estimate D2E/DX2                !
 ! R19   R(8,9)                  1.5104         estimate D2E/DX2                !
 ! R20   R(8,18)                 1.087          estimate D2E/DX2                !
 ! R21   R(9,19)                 1.0996         estimate D2E/DX2                !
 ! R22   R(9,20)                 1.0983         estimate D2E/DX2                !
 ! R23   R(10,21)                1.0933         estimate D2E/DX2                !
 ! R24   R(10,22)                1.0939         estimate D2E/DX2                !
 ! A1    A(2,1,6)              107.4456         estimate D2E/DX2                !
 ! A2    A(2,1,11)             127.3295         estimate D2E/DX2                !
 ! A3    A(6,1,11)             124.8775         estimate D2E/DX2                !
 ! A4    A(1,2,3)              107.5534         estimate D2E/DX2                !
 ! A5    A(1,2,12)             127.2908         estimate D2E/DX2                !
 ! A6    A(3,2,12)             124.8087         estimate D2E/DX2                !
 ! A7    A(2,3,4)              106.1691         estimate D2E/DX2                !
 ! A8    A(2,3,10)              99.9956         estimate D2E/DX2                !
 ! A9    A(2,3,13)             116.1871         estimate D2E/DX2                !
 ! A10   A(4,3,10)             101.2525         estimate D2E/DX2                !
 ! A11   A(4,3,13)             113.9706         estimate D2E/DX2                !
 ! A12   A(10,3,13)            117.2447         estimate D2E/DX2                !
 ! A13   A(3,4,5)              102.2768         estimate D2E/DX2                !
 ! A14   A(3,4,9)              115.2752         estimate D2E/DX2                !
 ! A15   A(3,4,14)             110.2821         estimate D2E/DX2                !
 ! A16   A(5,4,9)              106.091          estimate D2E/DX2                !
 ! A17   A(5,4,14)             112.1038         estimate D2E/DX2                !
 ! A18   A(9,4,14)             110.5114         estimate D2E/DX2                !
 ! A19   A(4,5,6)              102.6533         estimate D2E/DX2                !
 ! A20   A(4,5,7)              103.8607         estimate D2E/DX2                !
 ! A21   A(4,5,15)             113.3565         estimate D2E/DX2                !
 ! A22   A(6,5,7)              115.4093         estimate D2E/DX2                !
 ! A23   A(6,5,15)             109.7959         estimate D2E/DX2                !
 ! A24   A(7,5,15)             111.4211         estimate D2E/DX2                !
 ! A25   A(1,6,5)              105.7172         estimate D2E/DX2                !
 ! A26   A(1,6,10)             100.119          estimate D2E/DX2                !
 ! A27   A(1,6,16)             116.4433         estimate D2E/DX2                !
 ! A28   A(5,6,10)             100.8302         estimate D2E/DX2                !
 ! A29   A(5,6,16)             114.2334         estimate D2E/DX2                !
 ! A30   A(10,6,16)            117.3385         estimate D2E/DX2                !
 ! A31   A(5,7,8)              112.9673         estimate D2E/DX2                !
 ! A32   A(5,7,17)             122.2482         estimate D2E/DX2                !
 ! A33   A(8,7,17)             124.7817         estimate D2E/DX2                !
 ! A34   A(7,8,9)              112.589          estimate D2E/DX2                !
 ! A35   A(7,8,18)             124.9465         estimate D2E/DX2                !
 ! A36   A(9,8,18)             122.4644         estimate D2E/DX2                !
 ! A37   A(4,9,8)              104.4877         estimate D2E/DX2                !
 ! A38   A(4,9,19)             112.046          estimate D2E/DX2                !
 ! A39   A(4,9,20)             111.6195         estimate D2E/DX2                !
 ! A40   A(8,9,19)             111.5773         estimate D2E/DX2                !
 ! A41   A(8,9,20)             111.4076         estimate D2E/DX2                !
 ! A42   A(19,9,20)            105.8463         estimate D2E/DX2                !
 ! A43   A(3,10,6)              93.6461         estimate D2E/DX2                !
 ! A44   A(3,10,21)            112.6001         estimate D2E/DX2                !
 ! A45   A(3,10,22)            114.0411         estimate D2E/DX2                !
 ! A46   A(6,10,21)            112.6469         estimate D2E/DX2                !
 ! A47   A(6,10,22)            113.5267         estimate D2E/DX2                !
 ! A48   A(21,10,22)           109.6796         estimate D2E/DX2                !
 ! D1    D(6,1,2,3)              0.0151         estimate D2E/DX2                !
 ! D2    D(6,1,2,12)          -173.4268         estimate D2E/DX2                !
 ! D3    D(11,1,2,3)           173.4568         estimate D2E/DX2                !
 ! D4    D(11,1,2,12)            0.0149         estimate D2E/DX2                !
 ! D5    D(2,1,6,5)             70.6965         estimate D2E/DX2                !
 ! D6    D(2,1,6,10)           -33.6926         estimate D2E/DX2                !
 ! D7    D(2,1,6,16)          -161.2658         estimate D2E/DX2                !
 ! D8    D(11,1,6,5)          -102.9477         estimate D2E/DX2                !
 ! D9    D(11,1,6,10)          152.6633         estimate D2E/DX2                !
 ! D10   D(11,1,6,16)           25.09           estimate D2E/DX2                !
 ! D11   D(1,2,3,4)            -71.318          estimate D2E/DX2                !
 ! D12   D(1,2,3,10)            33.598          estimate D2E/DX2                !
 ! D13   D(1,2,3,13)           160.8048         estimate D2E/DX2                !
 ! D14   D(12,2,3,4)           102.3284         estimate D2E/DX2                !
 ! D15   D(12,2,3,10)         -152.7556         estimate D2E/DX2                !
 ! D16   D(12,2,3,13)          -25.5489         estimate D2E/DX2                !
 ! D17   D(2,3,4,5)             67.2417         estimate D2E/DX2                !
 ! D18   D(2,3,4,9)           -178.149          estimate D2E/DX2                !
 ! D19   D(2,3,4,14)           -52.1625         estimate D2E/DX2                !
 ! D20   D(10,3,4,5)           -36.76           estimate D2E/DX2                !
 ! D21   D(10,3,4,9)            77.8493         estimate D2E/DX2                !
 ! D22   D(10,3,4,14)         -156.1641         estimate D2E/DX2                !
 ! D23   D(13,3,4,5)          -163.5783         estimate D2E/DX2                !
 ! D24   D(13,3,4,9)           -48.969          estimate D2E/DX2                !
 ! D25   D(13,3,4,14)           77.0176         estimate D2E/DX2                !
 ! D26   D(2,3,10,6)           -50.5199         estimate D2E/DX2                !
 ! D27   D(2,3,10,21)           65.8683         estimate D2E/DX2                !
 ! D28   D(2,3,10,22)         -168.321          estimate D2E/DX2                !
 ! D29   D(4,3,10,6)            58.3472         estimate D2E/DX2                !
 ! D30   D(4,3,10,21)          174.7354         estimate D2E/DX2                !
 ! D31   D(4,3,10,22)          -59.454          estimate D2E/DX2                !
 ! D32   D(13,3,10,6)         -177.0164         estimate D2E/DX2                !
 ! D33   D(13,3,10,21)         -60.6282         estimate D2E/DX2                !
 ! D34   D(13,3,10,22)          65.1824         estimate D2E/DX2                !
 ! D35   D(3,4,5,6)              0.3277         estimate D2E/DX2                !
 ! D36   D(3,4,5,7)            120.8816         estimate D2E/DX2                !
 ! D37   D(3,4,5,15)          -118.0337         estimate D2E/DX2                !
 ! D38   D(9,4,5,6)           -120.8403         estimate D2E/DX2                !
 ! D39   D(9,4,5,7)             -0.2865         estimate D2E/DX2                !
 ! D40   D(9,4,5,15)           120.7983         estimate D2E/DX2                !
 ! D41   D(14,4,5,6)           118.4449         estimate D2E/DX2                !
 ! D42   D(14,4,5,7)          -121.0012         estimate D2E/DX2                !
 ! D43   D(14,4,5,15)            0.0835         estimate D2E/DX2                !
 ! D44   D(3,4,9,8)           -111.8392         estimate D2E/DX2                !
 ! D45   D(3,4,9,19)             9.1206         estimate D2E/DX2                !
 ! D46   D(3,4,9,20)           127.6354         estimate D2E/DX2                !
 ! D47   D(5,4,9,8)              0.5526         estimate D2E/DX2                !
 ! D48   D(5,4,9,19)           121.5123         estimate D2E/DX2                !
 ! D49   D(5,4,9,20)          -119.9729         estimate D2E/DX2                !
 ! D50   D(14,4,9,8)           122.2919         estimate D2E/DX2                !
 ! D51   D(14,4,9,19)         -116.7484         estimate D2E/DX2                !
 ! D52   D(14,4,9,20)            1.7664         estimate D2E/DX2                !
 ! D53   D(4,5,6,1)            -67.6674         estimate D2E/DX2                !
 ! D54   D(4,5,6,10)            36.1992         estimate D2E/DX2                !
 ! D55   D(4,5,6,16)           162.9881         estimate D2E/DX2                !
 ! D56   D(7,5,6,1)           -179.9062         estimate D2E/DX2                !
 ! D57   D(7,5,6,10)           -76.0395         estimate D2E/DX2                !
 ! D58   D(7,5,6,16)            50.7494         estimate D2E/DX2                !
 ! D59   D(15,5,6,1)            53.1729         estimate D2E/DX2                !
 ! D60   D(15,5,6,10)          157.0396         estimate D2E/DX2                !
 ! D61   D(15,5,6,16)          -76.1715         estimate D2E/DX2                !
 ! D62   D(4,5,7,8)             -0.1297         estimate D2E/DX2                !
 ! D63   D(4,5,7,17)          -179.5593         estimate D2E/DX2                !
 ! D64   D(6,5,7,8)            111.4008         estimate D2E/DX2                !
 ! D65   D(6,5,7,17)           -68.0288         estimate D2E/DX2                !
 ! D66   D(15,5,7,8)          -122.504          estimate D2E/DX2                !
 ! D67   D(15,5,7,17)           58.0664         estimate D2E/DX2                !
 ! D68   D(1,6,10,3)            50.591          estimate D2E/DX2                !
 ! D69   D(1,6,10,21)          -65.7578         estimate D2E/DX2                !
 ! D70   D(1,6,10,22)          168.8183         estimate D2E/DX2                !
 ! D71   D(5,6,10,3)           -57.7276         estimate D2E/DX2                !
 ! D72   D(5,6,10,21)         -174.0765         estimate D2E/DX2                !
 ! D73   D(5,6,10,22)           60.4996         estimate D2E/DX2                !
 ! D74   D(16,6,10,3)          177.5678         estimate D2E/DX2                !
 ! D75   D(16,6,10,21)          61.2189         estimate D2E/DX2                !
 ! D76   D(16,6,10,22)         -64.2049         estimate D2E/DX2                !
 ! D77   D(5,7,8,9)              0.5219         estimate D2E/DX2                !
 ! D78   D(5,7,8,18)          -179.3528         estimate D2E/DX2                !
 ! D79   D(17,7,8,9)           179.9346         estimate D2E/DX2                !
 ! D80   D(17,7,8,18)            0.0599         estimate D2E/DX2                !
 ! D81   D(7,8,9,4)             -0.6762         estimate D2E/DX2                !
 ! D82   D(7,8,9,19)          -121.9467         estimate D2E/DX2                !
 ! D83   D(7,8,9,20)           119.9905         estimate D2E/DX2                !
 ! D84   D(18,8,9,4)           179.2021         estimate D2E/DX2                !
 ! D85   D(18,8,9,19)           57.9315         estimate D2E/DX2                !
 ! D86   D(18,8,9,20)          -60.1313         estimate D2E/DX2                !
 --------------------------------------------------------------------------------
 Trust Radius=3.00D-01 FncErr=1.00D-07 GrdErr=1.00D-06 EigMax=2.50D+02 EigMin=1.00D-04
 Number of steps in this run=    132 maximum allowed number of steps=    132.
 GradGradGradGradGradGradGradGradGradGradGradGradGradGradGradGradGradGrad

                          Input orientation:                          
 ---------------------------------------------------------------------
 Center     Atomic      Atomic             Coordinates (Angstroms)
 Number     Number       Type             X           Y           Z
 ---------------------------------------------------------------------
      1          6           0        2.143730   -0.641159   -0.398447
      2          6           0        2.112314    0.698322   -0.390241
      3          6           0        0.840042    1.124004    0.334090
      4          6           0       -0.349086    0.773351   -0.628495
      5          6           0       -0.312461   -0.803016   -0.646232
      6          6           0        0.892537   -1.131938    0.320065
      7          6           0       -1.674965   -1.201569   -0.139769
      8          6           0       -2.448820   -0.153437    0.154167
      9          6           0       -1.762723    1.166208   -0.108909
     10          6           0        0.730562   -0.015185    1.376970
     11          1           0        2.854166   -1.279459   -0.913241
     12          1           0        2.792141    1.374912   -0.897428
     13          1           0        0.819326    2.150109    0.709925
     14          1           0       -0.173047    1.199869   -1.618933
     15          1           0       -0.116424   -1.222031   -1.640087
     16          1           0        0.910764   -2.163755    0.679058
     17          1           0       -1.969755   -2.241485   -0.025124
     18          1           0       -3.462005   -0.217039    0.542673
     19          1           0       -1.711678    1.783610    0.799538
     20          1           0       -2.313492    1.764171   -0.847334
     21          1           0        1.548219   -0.000521    2.102626
     22          1           0       -0.228142   -0.047363    1.902830
 ---------------------------------------------------------------------
                    Distance matrix (angstroms):
                    1          2          3          4          5
     1  C    0.000000
     2  C    1.339874   0.000000
     3  C    2.313442   1.524643   0.000000
     4  C    2.875394   2.474042   1.569571   0.000000
     5  C    2.473958   2.863404   2.450041   1.576892   0.000000
     6  C    1.524010   2.311329   2.256596   2.464045   1.579221
     7  C    3.868256   4.244503   3.458047   2.428398   1.507238
     8  C    4.651319   4.671811   3.532823   2.424949   2.372050
     9  C    4.314022   3.913308   2.640533   1.556495   2.503961
    10  C    2.353931   2.354011   1.548333   2.410253   2.408718
    11  H    1.084970   2.176118   3.374784   3.815224   3.213381
    12  H    2.175767   1.084978   2.321698   3.209596   3.800661
    13  H    3.282333   2.233801   1.092965   2.247669   3.441083
    14  H    3.201004   2.642746   2.201455   1.092646   2.230949
    15  H    2.643365   3.196427   3.211866   2.249222   1.096244
    16  H    2.235961   3.283079   3.306564   3.453043   2.259266
    17  H    4.429579   5.043715   4.398921   3.475609   2.280700
    18  H    5.699987   5.725491   4.511043   3.470270   3.417088
    19  H    4.709442   4.149258   2.676378   2.217331   3.276995
    20  H    5.084677   4.575230   3.427879   2.210997   3.261137
    21  H    2.649607   2.649711   2.212191   3.414332   3.415018
    22  H    3.357714   3.360350   2.230261   2.663795   2.660045
                    6          7          8          9         10
     6  C    0.000000
     7  C    2.609284   0.000000
     8  C    3.485635   1.335601   0.000000
     9  C    3.537782   2.369604   1.510431   0.000000
    10  C    1.546099   3.081325   3.409227   3.133687   0.000000
    11  H    2.321808   4.595362   5.525301   5.286199   3.369443
    12  H    3.372696   5.212230   5.559620   4.627322   3.369772
    13  H    3.305932   4.263474   4.036827   2.881931   2.267449
    14  H    3.214422   3.195401   3.186607   2.192801   3.356829
    15  H    2.206426   2.163428   3.130705   3.280014   3.358049
    16  H    1.092636   2.877894   3.950151   4.342474   2.266254
    17  H    3.089169   1.086954   2.149789   3.415004   3.770145
    18  H    4.455180   2.151404   1.086980   2.285933   4.279534
    19  H    3.938559   3.129687   2.170722   1.099576   3.087657
    20  H    4.475365   3.115121   2.167611   1.098261   4.168921
    21  H    2.210780   4.106065   4.449292   4.149034   1.093323
    22  H    2.222019   2.756392   2.828513   2.806205   1.093928
                   11         12         13         14         15
    11  H    0.000000
    12  H    2.655143   0.000000
    13  H    4.305482   2.660172   0.000000
    14  H    3.976064   3.056722   2.703949   0.000000
    15  H    3.058759   3.969308   4.215390   2.422654   0.000000
    16  H    2.663495   4.306629   4.314943   4.215374   2.705622
    17  H    4.998446   6.042756   5.254081   4.196582   2.661246
    18  H    6.568290   6.612302   4.895014   4.182991   4.119146
    19  H    5.758727   4.830229   2.558971   2.925259   4.186942
    20  H    5.997726   5.120695   3.519738   2.344207   3.791170
    21  H    3.526561   3.526965   2.663853   4.272434   4.274462
    22  H    4.353038   4.357341   2.710921   3.736501   3.734245
                   16         17         18         19         20
    16  H    0.000000
    17  H    2.966362   0.000000
    18  H    4.788467   2.578291   0.000000
    19  H    4.740613   4.116802   2.670622   0.000000
    20  H    5.306063   4.103592   2.678879   1.753495   0.000000
    21  H    2.666923   4.682455   5.251921   3.938031   5.170030
    22  H    2.697006   3.400646   3.512362   2.602037   3.897915
                   21         22
    21  H    0.000000
    22  H    1.788175   0.000000
 Stoichiometry    C10H12
 Framework group  C1[X(C10H12)]
 Deg. of freedom    60
 Full point group                 C1      NOp   1
 Largest Abelian subgroup         C1      NOp   1
 Largest concise Abelian subgroup C1      NOp   1
                         Standard orientation:                         
 ---------------------------------------------------------------------
 Center     Atomic      Atomic             Coordinates (Angstroms)
 Number     Number       Type             X           Y           Z
 ---------------------------------------------------------------------
      1          6           0       -2.143292    0.640459   -0.403964
      2          6           0       -2.111616   -0.699012   -0.395096
      3          6           0       -0.840870   -1.124108    0.332249
      4          6           0        0.350323   -0.773632   -0.627844
      5          6           0        0.313410    0.802719   -0.646359
      6          6           0       -0.893802    1.131816    0.317111
      7          6           0        1.674702    1.201780   -0.137044
      8          6           0        2.448119    0.153940    0.159074
      9          6           0        1.762883   -1.165965   -0.104943
     10          6           0       -0.733945    0.015564    1.374867
     11          1           0       -2.852715    1.278383   -0.920618
     12          1           0       -2.790174   -1.375967   -0.903494
     13          1           0       -0.820776   -2.150043    0.708583
     14          1           0        0.176575   -1.200624   -1.618483
     15          1           0        0.119496    1.221255   -1.640833
     16          1           0       -0.913041    2.163788    0.675607
     17          1           0        1.969020    2.241808   -0.022204
     18          1           0        3.460424    0.217925    0.549804
     19          1           0        1.709946   -1.782976    0.803661
     20          1           0        2.315416   -1.764138   -0.841878
     21          1           0       -1.553210    0.001049    2.098710
     22          1           0        0.223581    0.048174    1.902843
 ---------------------------------------------------------------------
 Rotational constants (GHZ):           2.8933343           1.3288300           1.1469854
 Standard basis: 6-311G(d,p) (5D, 7F)
 There are   262 symmetry adapted cartesian basis functions of A   symmetry.
 There are   252 symmetry adapted basis functions of A   symmetry.
   252 basis functions,   416 primitive gaussians,   262 cartesian basis functions
    36 alpha electrons       36 beta electrons
       nuclear repulsion energy       529.7336621417 Hartrees.
 NAtoms=   22 NActive=   22 NUniq=   22 SFac= 1.00D+00 NAtFMM=   60 NAOKFM=F Big=F
 Integral buffers will be    131072 words long.
 Raffenetti 2 integral format.
 Two-electron integral symmetry is turned on.
 Nuclear repulsion after empirical dispersion term =      529.6896073400 Hartrees.
 ------------------------------------------------------------------------------
 Polarizable Continuum Model (PCM)
 =================================
 Model                : PCM.
 Atomic radii         : UFF (Universal Force Field).
 Polarization charges : Total charges.
 Charge compensation  : None.
 Solution method      : On-the-fly selection.
 Cavity type          : Scaled VdW (van der Waals Surface) (Alpha=1.100).
 Cavity algorithm     : GePol (No added spheres)
                        Default sphere list used, NSphG=   22.
                        Lebedev-Laikov grids with approx.  5.0 points / Ang**2.
                        Smoothing algorithm: York/Karplus (Gamma=1.0000).
                        Polarization charges: spherical gaussians, with
                                              point-specific exponents (IZeta= 3).
                        Self-potential: point-specific (ISelfS= 7).
                        Self-field    : sphere-specific E.n sum rule (ISelfD= 2).
 1st derivatives      : Analytical E(r).r(x)/FMM algorithm (CHGder, D1EAlg=3).
                        Cavity 1st derivative terms included.
 Solvent              : Cis-Decalin, Eps=   2.213900 Eps(inf)=   2.193361
 ------------------------------------------------------------------------------
 One-electron integrals computed using PRISM.
 NBasis=   252 RedAO= T EigKep=  4.85D-04  NBF=   252
 NBsUse=   252 1.00D-06 EigRej= -1.00D+00 NBFU=   252
 ExpMin= 1.03D-01 ExpMax= 4.56D+03 ExpMxC= 6.82D+02 IAcc=3 IRadAn=         5 AccDes= 0.00D+00
 Harris functional with IExCor=  402 and IRadAn=       5 diagonalized for initial guess.
 HarFok:  IExCor=  402 AccDes= 0.00D+00 IRadAn=         5 IDoV= 1 UseB2=F ITyADJ=14
 ICtDFT=  3500011 ScaDFX=  1.000000  1.000000  1.000000  1.000000
 FoFCou: FMM=F IPFlag=           0 FMFlag=      100000 FMFlg1=           0
         NFxFlg=           0 DoJE=T BraDBF=F KetDBF=T FulRan=T
         wScrn=  0.000000 ICntrl=       500 IOpCl=  0 I1Cent=   200000004 NGrid=           0
         NMat0=    1 NMatS0=      1 NMatT0=    0 NMatD0=    1 NMtDS0=    0 NMtDT0=    0
 Petite list used in FoFCou.
 Requested convergence on RMS density matrix=1.00D-08 within 128 cycles.
 Requested convergence on MAX density matrix=1.00D-06.
 Requested convergence on             energy=1.00D-06.
 No special actions if energy rises.
 Inv3:  Mode=1 IEnd=     7124043.
 Iteration    1 A*A^-1 deviation from unit magnitude is 4.33D-15 for   1510.
 Iteration    1 A*A^-1 deviation from orthogonality  is 5.08D-15 for   1510    670.
 Iteration    1 A^-1*A deviation from unit magnitude is 4.33D-15 for   1510.
 Iteration    1 A^-1*A deviation from orthogonality  is 1.38D-15 for   1535    672.
 Error on total polarization charges =  0.00669
 SCF Done:  E(RB3LYP) =  -388.371679697     A.U. after   12 cycles
            NFock= 12  Conv=0.44D-08     -V/T= 2.0050

 **********************************************************************

            Population analysis using the SCF density.

 **********************************************************************

 Orbital symmetries:
       Occupied  (A) (A) (A) (A) (A) (A) (A) (A) (A) (A) (A) (A)
                 (A) (A) (A) (A) (A) (A) (A) (A) (A) (A) (A) (A)
                 (A) (A) (A) (A) (A) (A) (A) (A) (A) (A) (A) (A)
       Virtual   (A) (A) (A) (A) (A) (A) (A) (A) (A) (A) (A) (A)
                 (A) (A) (A) (A) (A) (A) (A) (A) (A) (A) (A) (A)
                 (A) (A) (A) (A) (A) (A) (A) (A) (A) (A) (A) (A)
                 (A) (A) (A) (A) (A) (A) (A) (A) (A) (A) (A) (A)
                 (A) (A) (A) (A) (A) (A) (A) (A) (A) (A) (A) (A)
                 (A) (A) (A) (A) (A) (A) (A) (A) (A) (A) (A) (A)
                 (A) (A) (A) (A) (A) (A) (A) (A) (A) (A) (A) (A)
                 (A) (A) (A) (A) (A) (A) (A) (A) (A) (A) (A) (A)
                 (A) (A) (A) (A) (A) (A) (A) (A) (A) (A) (A) (A)
                 (A) (A) (A) (A) (A) (A) (A) (A) (A) (A) (A) (A)
                 (A) (A) (A) (A) (A) (A) (A) (A) (A) (A) (A) (A)
                 (A) (A) (A) (A) (A) (A) (A) (A) (A) (A) (A) (A)
                 (A) (A) (A) (A) (A) (A) (A) (A) (A) (A) (A) (A)
                 (A) (A) (A) (A) (A) (A) (A) (A) (A) (A) (A) (A)
                 (A) (A) (A) (A) (A) (A) (A) (A) (A) (A) (A) (A)
                 (A) (A) (A) (A) (A) (A) (A) (A) (A) (A) (A) (A)
                 (A) (A) (A) (A) (A) (A) (A) (A) (A) (A) (A) (A)
                 (A) (A) (A) (A) (A) (A) (A) (A) (A) (A) (A) (A)
 The electronic state is 1-A.
 Alpha  occ. eigenvalues --  -10.17529 -10.17455 -10.17307 -10.17185 -10.16748
 Alpha  occ. eigenvalues --  -10.16493 -10.16284 -10.16197 -10.16197 -10.16101
 Alpha  occ. eigenvalues --   -0.88680  -0.81842  -0.73319  -0.71615  -0.68678
 Alpha  occ. eigenvalues --   -0.67167  -0.56480  -0.55355  -0.53556  -0.51283
 Alpha  occ. eigenvalues --   -0.50106  -0.49304  -0.47733  -0.40877  -0.39290
 Alpha  occ. eigenvalues --   -0.39088  -0.37894  -0.36312  -0.35358  -0.34249
 Alpha  occ. eigenvalues --   -0.32999  -0.32789  -0.31907  -0.30859  -0.25073
 Alpha  occ. eigenvalues --   -0.23413
 Alpha virt. eigenvalues --    0.00697   0.01761   0.04567   0.06874   0.07449
 Alpha virt. eigenvalues --    0.07944   0.09174   0.09988   0.10518   0.10993
 Alpha virt. eigenvalues --    0.12079   0.13398   0.13891   0.14732   0.16736
 Alpha virt. eigenvalues --    0.18240   0.18989   0.19209   0.21125   0.22502
 Alpha virt. eigenvalues --    0.24894   0.27876   0.29709   0.30756   0.32817
 Alpha virt. eigenvalues --    0.33374   0.34373   0.36801   0.36962   0.38543
 Alpha virt. eigenvalues --    0.38912   0.41014   0.42856   0.43259   0.44050
 Alpha virt. eigenvalues --    0.44480   0.46334   0.47536   0.48708   0.51387
 Alpha virt. eigenvalues --    0.52209   0.52994   0.53297   0.53315   0.55232
 Alpha virt. eigenvalues --    0.55810   0.56750   0.57106   0.58429   0.59097
 Alpha virt. eigenvalues --    0.59430   0.60526   0.61136   0.61584   0.62474
 Alpha virt. eigenvalues --    0.63209   0.65544   0.65876   0.67235   0.68539
 Alpha virt. eigenvalues --    0.69422   0.71416   0.72639   0.72804   0.75232
 Alpha virt. eigenvalues --    0.77527   0.78198   0.79944   0.83789   0.84629
 Alpha virt. eigenvalues --    0.91575   0.95643   0.97468   0.98871   1.04171
 Alpha virt. eigenvalues --    1.07242   1.09632   1.11149   1.12173   1.15998
 Alpha virt. eigenvalues --    1.19349   1.20739   1.22952   1.25388   1.32137
 Alpha virt. eigenvalues --    1.36456   1.39579   1.41522   1.42382   1.43555
 Alpha virt. eigenvalues --    1.45174   1.46594   1.47363   1.49373   1.50355
 Alpha virt. eigenvalues --    1.51892   1.53722   1.54759   1.55476   1.56342
 Alpha virt. eigenvalues --    1.57492   1.59421   1.59515   1.62007   1.62820
 Alpha virt. eigenvalues --    1.64300   1.66105   1.66916   1.68513   1.69913
 Alpha virt. eigenvalues --    1.70406   1.72334   1.72972   1.75471   1.76476
 Alpha virt. eigenvalues --    1.77796   1.79297   1.81638   1.81883   1.83475
 Alpha virt. eigenvalues --    1.86062   1.87400   1.88306   1.89083   1.89757
 Alpha virt. eigenvalues --    1.90087   1.91578   1.92540   1.95832   1.98286
 Alpha virt. eigenvalues --    2.01247   2.03720   2.06786   2.11615   2.11798
 Alpha virt. eigenvalues --    2.13715   2.14702   2.17412   2.19223   2.21091
 Alpha virt. eigenvalues --    2.22341   2.23955   2.25061   2.30678   2.31219
 Alpha virt. eigenvalues --    2.32450   2.33103   2.36789   2.39194   2.39705
 Alpha virt. eigenvalues --    2.42783   2.45276   2.46467   2.49248   2.54857
 Alpha virt. eigenvalues --    2.57564   2.59858   2.60368   2.61860   2.62950
 Alpha virt. eigenvalues --    2.64994   2.65510   2.67505   2.67926   2.68862
 Alpha virt. eigenvalues --    2.70677   2.73004   2.75064   2.76913   2.78867
 Alpha virt. eigenvalues --    2.80419   2.81430   2.83505   2.84360   2.88294
 Alpha virt. eigenvalues --    2.92210   2.96735   2.99342   3.00680   3.01771
 Alpha virt. eigenvalues --    3.05729   3.08491   3.10997   3.13994   3.20295
 Alpha virt. eigenvalues --    3.25717   3.28963   3.34121   3.39616   3.42728
 Alpha virt. eigenvalues --    3.52994   3.56814   3.70078   3.78159   3.91905
 Alpha virt. eigenvalues --    4.00042   4.02504   4.04941   4.10874   4.13389
 Alpha virt. eigenvalues --    4.16572   4.19064   4.22815   4.33676   4.35649
 Alpha virt. eigenvalues --    4.53131  23.66191  23.74846  23.82514  23.84226
 Alpha virt. eigenvalues --   23.89897  23.91375  23.98045  23.99181  24.27749
 Alpha virt. eigenvalues --   24.29408
          Condensed to atoms (all electrons):
               1          2          3          4          5          6
     1  C    5.009455   0.614086  -0.092582  -0.023127  -0.064459   0.357314
     2  C    0.614086   5.010098   0.366416  -0.068263  -0.025153  -0.088820
     3  C   -0.092582   0.366416   5.111173   0.355975  -0.075158  -0.072734
     4  C   -0.023127  -0.068263   0.355975   5.190472   0.368298  -0.084546
     5  C   -0.064459  -0.025153  -0.075158   0.368298   5.152668   0.354763
     6  C    0.357314  -0.088820  -0.072734  -0.084546   0.354763   5.156375
     7  C    0.007071   0.001394  -0.000638  -0.073314   0.360928  -0.072096
     8  C   -0.000332  -0.000583   0.004351  -0.063911  -0.078720   0.000951
     9  C    0.000898   0.006938  -0.053950   0.355400  -0.094882   0.006053
    10  C   -0.087802  -0.091145   0.343674  -0.092849  -0.092691   0.334120
    11  H    0.417795  -0.039958   0.007965  -0.000747   0.001756  -0.039810
    12  H   -0.039534   0.417164  -0.040110   0.002022  -0.000681   0.007746
    13  H    0.006643  -0.030817   0.408559  -0.035051   0.007735   0.008241
    14  H    0.002382  -0.004901  -0.032546   0.399691  -0.026762   0.002973
    15  H   -0.004599   0.001916   0.001895  -0.024162   0.397147  -0.040789
    16  H   -0.031531   0.006689   0.007552   0.007638  -0.034008   0.406182
    17  H   -0.000120  -0.000022  -0.000373   0.005479  -0.041980   0.000019
    18  H    0.000033   0.000030  -0.000214   0.005741   0.008669  -0.000345
    19  H   -0.000024   0.000317  -0.004948  -0.043549   0.007789   0.000876
    20  H   -0.000024  -0.000333   0.003385  -0.028423   0.003811  -0.000842
    21  H    0.002202   0.001614  -0.033853   0.009049   0.008587  -0.033664
    22  H    0.008399   0.007722  -0.037942  -0.001960  -0.004731  -0.039857
               7          8          9         10         11         12
     1  C    0.007071  -0.000332   0.000898  -0.087802   0.417795  -0.039534
     2  C    0.001394  -0.000583   0.006938  -0.091145  -0.039958   0.417164
     3  C   -0.000638   0.004351  -0.053950   0.343674   0.007965  -0.040110
     4  C   -0.073314  -0.063911   0.355400  -0.092849  -0.000747   0.002022
     5  C    0.360928  -0.078720  -0.094882  -0.092691   0.001756  -0.000681
     6  C   -0.072096   0.000951   0.006053   0.334120  -0.039810   0.007746
     7  C    4.953332   0.632167  -0.080339  -0.004971  -0.000309   0.000058
     8  C    0.632167   4.965972   0.360637  -0.000093   0.000007   0.000016
     9  C   -0.080339   0.360637   4.921438  -0.007183   0.000061  -0.000310
    10  C   -0.004971  -0.000093  -0.007183   5.074023   0.005513   0.005770
    11  H   -0.000309   0.000007   0.000061   0.005513   0.562741  -0.005579
    12  H    0.000058   0.000016  -0.000310   0.005770  -0.005579   0.562679
    13  H   -0.000565  -0.000218  -0.004296  -0.027293  -0.000312  -0.003152
    14  H    0.005645   0.003749  -0.031182   0.009015  -0.000028   0.002116
    15  H   -0.032220   0.000813   0.005817   0.009748   0.001934  -0.000018
    16  H   -0.001909   0.000254  -0.000373  -0.025759  -0.003060  -0.000324
    17  H    0.413964  -0.037629   0.008639  -0.000246   0.000008  -0.000003
    18  H   -0.037764   0.410748  -0.040038   0.000026  -0.000000  -0.000000
    19  H   -0.000165  -0.038647   0.401925   0.000612   0.000001  -0.000008
    20  H    0.000781  -0.034955   0.399674   0.000243  -0.000006   0.000020
    21  H    0.000132  -0.000118  -0.000235   0.399836   0.000163   0.000215
    22  H    0.005958   0.001090  -0.000541   0.410984  -0.000275  -0.000253
              13         14         15         16         17         18
     1  C    0.006643   0.002382  -0.004599  -0.031531  -0.000120   0.000033
     2  C   -0.030817  -0.004901   0.001916   0.006689  -0.000022   0.000030
     3  C    0.408559  -0.032546   0.001895   0.007552  -0.000373  -0.000214
     4  C   -0.035051   0.399691  -0.024162   0.007638   0.005479   0.005741
     5  C    0.007735  -0.026762   0.397147  -0.034008  -0.041980   0.008669
     6  C    0.008241   0.002973  -0.040789   0.406182   0.000019  -0.000345
     7  C   -0.000565   0.005645  -0.032220  -0.001909   0.413964  -0.037764
     8  C   -0.000218   0.003749   0.000813   0.000254  -0.037629   0.410748
     9  C   -0.004296  -0.031182   0.005817  -0.000373   0.008639  -0.040038
    10  C   -0.027293   0.009015   0.009748  -0.025759  -0.000246   0.000026
    11  H   -0.000312  -0.000028   0.001934  -0.003060   0.000008  -0.000000
    12  H   -0.003152   0.002116  -0.000018  -0.000324  -0.000003  -0.000000
    13  H    0.562375   0.000473  -0.000333  -0.000360   0.000033   0.000011
    14  H    0.000473   0.560109  -0.006714  -0.000287  -0.000306  -0.000302
    15  H   -0.000333  -0.006714   0.567062   0.000827  -0.000598  -0.000384
    16  H   -0.000360  -0.000287   0.000827   0.563371   0.001644   0.000007
    17  H    0.000033  -0.000306  -0.000598   0.001644   0.564228  -0.006143
    18  H    0.000011  -0.000302  -0.000384   0.000007  -0.006143   0.565791
    19  H    0.003790   0.005011  -0.000715   0.000010  -0.000367  -0.000500
    20  H   -0.000192  -0.010463   0.000393   0.000034  -0.000389  -0.000560
    21  H   -0.003084  -0.000490  -0.000452  -0.002903   0.000017  -0.000023
    22  H   -0.002078  -0.000185   0.000262  -0.001839   0.000404   0.000104
              19         20         21         22
     1  C   -0.000024  -0.000024   0.002202   0.008399
     2  C    0.000317  -0.000333   0.001614   0.007722
     3  C   -0.004948   0.003385  -0.033853  -0.037942
     4  C   -0.043549  -0.028423   0.009049  -0.001960
     5  C    0.007789   0.003811   0.008587  -0.004731
     6  C    0.000876  -0.000842  -0.033664  -0.039857
     7  C   -0.000165   0.000781   0.000132   0.005958
     8  C   -0.038647  -0.034955  -0.000118   0.001090
     9  C    0.401925   0.399674  -0.000235  -0.000541
    10  C    0.000612   0.000243   0.399836   0.410984
    11  H    0.000001  -0.000006   0.000163  -0.000275
    12  H   -0.000008   0.000020   0.000215  -0.000253
    13  H    0.003790  -0.000192  -0.003084  -0.002078
    14  H    0.005011  -0.010463  -0.000490  -0.000185
    15  H   -0.000715   0.000393  -0.000452   0.000262
    16  H    0.000010   0.000034  -0.002903  -0.001839
    17  H   -0.000367  -0.000389   0.000017   0.000404
    18  H   -0.000500  -0.000560  -0.000023   0.000104
    19  H    0.591497  -0.037105  -0.000271  -0.001226
    20  H   -0.037105   0.583639   0.000030   0.000567
    21  H   -0.000271   0.000030   0.565544  -0.027182
    22  H   -0.001226   0.000567  -0.027182   0.563538
 Mulliken charges:
               1
     1  C   -0.082145
     2  C   -0.084390
     3  C   -0.165896
     4  C   -0.159863
     5  C   -0.132928
     6  C   -0.162110
     7  C   -0.077139
     8  C   -0.125550
     9  C   -0.154152
    10  C   -0.163533
    11  H    0.092140
    12  H    0.092168
    13  H    0.109888
    14  H    0.123003
    15  H    0.123166
    16  H    0.108143
    17  H    0.093742
    18  H    0.095113
    19  H    0.115697
    20  H    0.120716
    21  H    0.114887
    22  H    0.119042
 Sum of Mulliken charges =  -0.00000
 Mulliken charges with hydrogens summed into heavy atoms:
               1
     1  C    0.009995
     2  C    0.007779
     3  C   -0.056008
     4  C   -0.036859
     5  C   -0.009761
     6  C   -0.053967
     7  C    0.016602
     8  C   -0.030437
     9  C    0.082261
    10  C    0.070395
 Electronic spatial extent (au):  <R**2>=           1180.6426
 Charge=              0.0000 electrons
 Dipole moment (field-independent basis, Debye):
    X=              0.2304    Y=             -0.1376    Z=             -0.1609  Tot=              0.3129
 Quadrupole moment (field-independent basis, Debye-Ang):
   XX=            -61.0175   YY=            -58.0159   ZZ=            -61.7463
   XY=             -0.5466   XZ=              1.9100   YZ=              0.0335
 Traceless Quadrupole moment (field-independent basis, Debye-Ang):
   XX=             -0.7576   YY=              2.2440   ZZ=             -1.4864
   XY=             -0.5466   XZ=              1.9100   YZ=              0.0335
 Octapole moment (field-independent basis, Debye-Ang**2):
  XXX=              6.2053  YYY=              2.8262  ZZZ=             -0.6046  XYY=             -1.3505
  XXY=             -1.0133  XXZ=             -1.2723  XZZ=             -1.5415  YZZ=             -1.6650
  YYZ=             -1.0268  XYZ=              0.7406
 Hexadecapole moment (field-independent basis, Debye-Ang**3):
 XXXX=           -975.7862 YYYY=           -406.4609 ZZZZ=           -253.8580 XXXY=             -3.2296
 XXXZ=             31.3789 YYYX=              5.9358 YYYZ=              0.4920 ZZZX=             -2.0602
 ZZZY=             -0.1062 XXYY=           -223.5580 XXZZ=           -209.1222 YYZZ=           -110.7665
 XXYZ=              3.4703 YYXZ=              3.6254 ZZXY=             -3.8839
 N-N= 5.296896073400D+02 E-N=-1.959887392011D+03  KE= 3.864259560829D+02
 D1PCM: PCM CHGder 1st derivatives, ID1Alg=3 FixD1E=F DoIter=F DoCFld=F I1PDM=0.
 Calling FoFJK, ICntrl=      2127 FMM=F ISym2X=0 I1Cent= 0 IOpClX= 0 NMat=1 NMatS=1 NMatT=0.
 ***** Axes restored to original set *****
 -------------------------------------------------------------------
 Center     Atomic                   Forces (Hartrees/Bohr)
 Number     Number              X              Y              Z
 -------------------------------------------------------------------
      1        6          -0.000202995    0.002367700   -0.000653957
      2        6          -0.000053813   -0.002324067   -0.000618555
      3        6          -0.000793347    0.001070413    0.000531336
      4        6           0.000501661    0.000400433   -0.000725014
      5        6           0.000385467    0.000265518   -0.000537478
      6        6          -0.000790168   -0.001123106    0.000637574
      7        6          -0.001077475    0.002153813    0.001076767
      8        6           0.001896453   -0.002302876   -0.000618621
      9        6           0.000657785    0.000414253    0.000187777
     10        6          -0.001033633    0.000017483    0.000463901
     11        1          -0.001120992    0.000917141    0.000692392
     12        1          -0.001054783   -0.000976661    0.000688482
     13        1          -0.000018791   -0.001888768   -0.000739768
     14        1          -0.000175166   -0.000874795    0.001779319
     15        1          -0.000276690    0.000878956    0.001778729
     16        1          -0.000130729    0.001850247   -0.000731760
     17        1           0.000500048    0.001514213   -0.000140162
     18        1           0.001469328   -0.000009508   -0.000507895
     19        1           0.000328619   -0.001240407   -0.001018007
     20        1           0.000960886   -0.001199412    0.000858822
     21        1          -0.000996332   -0.000029436   -0.001264010
     22        1           0.001024670    0.000118865   -0.001139875
 -------------------------------------------------------------------
 Cartesian Forces:  Max     0.002367700 RMS     0.001049692

 GradGradGradGradGradGradGradGradGradGradGradGradGradGradGradGradGradGrad
 Berny optimization.
 FormGI is forming the generalized inverse of G from B-inverse, IUseBI=4.
 Internal  Forces:  Max     0.004114957 RMS     0.000815275
 Search for a local minimum.
 Step number   1 out of a maximum of  132
 All quantities printed in internal units (Hartrees-Bohrs-Radians)
 Mixed Optimization -- En-DIIS/RFO-DIIS
 Second derivative matrix not updated -- first step.
 ITU=  0
     Eigenvalues ---    0.00397   0.00923   0.01090   0.01253   0.01532
     Eigenvalues ---    0.01598   0.01801   0.01839   0.02592   0.02940
     Eigenvalues ---    0.03422   0.03998   0.04174   0.04564   0.04640
     Eigenvalues ---    0.04888   0.04974   0.05332   0.05464   0.05620
     Eigenvalues ---    0.05727   0.06542   0.06693   0.07153   0.07745
     Eigenvalues ---    0.08306   0.09378   0.09759   0.11133   0.11641
     Eigenvalues ---    0.15701   0.15868   0.15999   0.16000   0.16766
     Eigenvalues ---    0.18938   0.21646   0.21843   0.23987   0.24088
     Eigenvalues ---    0.25681   0.26394   0.27023   0.29485   0.29606
     Eigenvalues ---    0.31148   0.33729   0.33875   0.34101   0.34363
     Eigenvalues ---    0.34431   0.34472   0.34509   0.34510   0.35164
     Eigenvalues ---    0.35167   0.35399   0.35400   0.50433   0.54140
 RFO step:  Lambda=-3.70764836D-04 EMin= 3.97389886D-03
 Linear search not attempted -- first point.
 Iteration  1 RMS(Cart)=  0.00967082 RMS(Int)=  0.00002802
 Iteration  2 RMS(Cart)=  0.00003394 RMS(Int)=  0.00000550
 Iteration  3 RMS(Cart)=  0.00000000 RMS(Int)=  0.00000550
 Variable       Old X    -DE/DX   Delta X   Delta X   Delta X     New X
                                 (Linear)    (Quad)   (Total)
    R1        2.53200  -0.00280   0.00000  -0.00630  -0.00631   2.52569
    R2        2.87996  -0.00083   0.00000  -0.00380  -0.00381   2.87616
    R3        2.05030  -0.00160   0.00000  -0.00452  -0.00452   2.04577
    R4        2.88116  -0.00093   0.00000  -0.00372  -0.00372   2.87744
    R5        2.05031  -0.00159   0.00000  -0.00449  -0.00449   2.04582
    R6        2.96606  -0.00274   0.00000  -0.00985  -0.00984   2.95622
    R7        2.92593  -0.00133   0.00000  -0.00417  -0.00417   2.92176
    R8        2.06540  -0.00203   0.00000  -0.00587  -0.00587   2.05953
    R9        2.97989  -0.00207   0.00000  -0.00458  -0.00457   2.97532
   R10        2.94135  -0.00284   0.00000  -0.00910  -0.00910   2.93225
   R11        2.06480  -0.00198   0.00000  -0.00574  -0.00574   2.05906
   R12        2.98430  -0.00263   0.00000  -0.01025  -0.01025   2.97405
   R13        2.84827  -0.00199   0.00000  -0.00676  -0.00676   2.84151
   R14        2.07160  -0.00200   0.00000  -0.00585  -0.00585   2.06575
   R15        2.92170  -0.00130   0.00000  -0.00350  -0.00350   2.91820
   R16        2.06478  -0.00199   0.00000  -0.00576  -0.00576   2.05902
   R17        2.52392  -0.00411   0.00000  -0.00792  -0.00793   2.51599
   R18        2.05405  -0.00160   0.00000  -0.00454  -0.00454   2.04950
   R19        2.85430  -0.00103   0.00000  -0.00405  -0.00406   2.85024
   R20        2.05409  -0.00155   0.00000  -0.00441  -0.00441   2.04969
   R21        2.07790  -0.00152   0.00000  -0.00451  -0.00451   2.07339
   R22        2.07541  -0.00171   0.00000  -0.00505  -0.00505   2.07036
   R23        2.06608  -0.00158   0.00000  -0.00460  -0.00460   2.06148
   R24        2.06722  -0.00145   0.00000  -0.00421  -0.00421   2.06301
    A1        1.87528   0.00028   0.00000   0.00087   0.00086   1.87614
    A2        2.22232  -0.00010   0.00000  -0.00037  -0.00037   2.22195
    A3        2.17952  -0.00018   0.00000  -0.00082  -0.00082   2.17870
    A4        1.87716   0.00018   0.00000   0.00095   0.00095   1.87811
    A5        2.22164  -0.00006   0.00000  -0.00042  -0.00042   2.22122
    A6        2.17832  -0.00012   0.00000  -0.00076  -0.00076   2.17757
    A7        1.85300  -0.00051   0.00000  -0.00317  -0.00316   1.84984
    A8        1.74525   0.00017   0.00000   0.00458   0.00456   1.74982
    A9        2.02785   0.00031   0.00000   0.00170   0.00169   2.02953
   A10        1.76719  -0.00027   0.00000  -0.00562  -0.00561   1.76158
   A11        1.98916   0.00023   0.00000   0.00044   0.00043   1.98960
   A12        2.04631  -0.00004   0.00000   0.00129   0.00129   2.04759
   A13        1.78507   0.00032   0.00000   0.00087   0.00085   1.78592
   A14        2.01193  -0.00058   0.00000  -0.00785  -0.00785   2.00408
   A15        1.92479   0.00012   0.00000   0.00221   0.00222   1.92700
   A16        1.85164  -0.00032   0.00000  -0.00165  -0.00167   1.84997
   A17        1.95658  -0.00012   0.00000   0.00135   0.00135   1.95793
   A18        1.92879   0.00053   0.00000   0.00466   0.00466   1.93345
   A19        1.79164   0.00008   0.00000   0.00097   0.00097   1.79261
   A20        1.81271   0.00019   0.00000   0.00144   0.00144   1.81415
   A21        1.97844  -0.00020   0.00000   0.00024   0.00023   1.97867
   A22        2.01427  -0.00067   0.00000  -0.00813  -0.00813   2.00614
   A23        1.91630   0.00024   0.00000   0.00223   0.00223   1.91853
   A24        1.94466   0.00032   0.00000   0.00293   0.00292   1.94759
   A25        1.84511  -0.00048   0.00000  -0.00477  -0.00476   1.84035
   A26        1.74741   0.00008   0.00000   0.00439   0.00437   1.75178
   A27        2.03232   0.00033   0.00000   0.00188   0.00186   2.03418
   A28        1.75982  -0.00020   0.00000  -0.00438  -0.00438   1.75544
   A29        1.99375   0.00012   0.00000   0.00016   0.00017   1.99391
   A30        2.04794   0.00004   0.00000   0.00187   0.00187   2.04981
   A31        1.97165  -0.00003   0.00000  -0.00096  -0.00096   1.97069
   A32        2.13363  -0.00004   0.00000   0.00011   0.00011   2.13374
   A33        2.17785   0.00007   0.00000   0.00081   0.00080   2.17865
   A34        1.96505   0.00033   0.00000   0.00028   0.00028   1.96533
   A35        2.18073  -0.00027   0.00000  -0.00079  -0.00079   2.17994
   A36        2.13741  -0.00006   0.00000   0.00050   0.00050   2.13791
   A37        1.82366  -0.00017   0.00000   0.00091   0.00092   1.82457
   A38        1.95557  -0.00019   0.00000  -0.00325  -0.00326   1.95232
   A39        1.94813  -0.00004   0.00000  -0.00102  -0.00102   1.94711
   A40        1.94739   0.00002   0.00000  -0.00160  -0.00161   1.94578
   A41        1.94443   0.00008   0.00000   0.00006   0.00005   1.94448
   A42        1.84737   0.00030   0.00000   0.00466   0.00467   1.85203
   A43        1.63443  -0.00008   0.00000   0.00102   0.00100   1.63543
   A44        1.96524  -0.00017   0.00000  -0.00040  -0.00040   1.96485
   A45        1.99039   0.00005   0.00000  -0.00264  -0.00263   1.98776
   A46        1.96606  -0.00013   0.00000  -0.00068  -0.00068   1.96538
   A47        1.98141   0.00006   0.00000  -0.00137  -0.00136   1.98006
   A48        1.91427   0.00021   0.00000   0.00343   0.00343   1.91770
    D1        0.00026   0.00000   0.00000   0.00047   0.00047   0.00073
    D2       -3.02687   0.00002   0.00000   0.00262   0.00262  -3.02425
    D3        3.02739  -0.00001   0.00000  -0.00259  -0.00258   3.02481
    D4        0.00026   0.00000   0.00000  -0.00043  -0.00044  -0.00017
    D5        1.23389  -0.00007   0.00000   0.00041   0.00041   1.23429
    D6       -0.58805   0.00024   0.00000   0.00485   0.00486  -0.58319
    D7       -2.81462  -0.00007   0.00000  -0.00204  -0.00203  -2.81665
    D8       -1.79678  -0.00006   0.00000   0.00334   0.00333  -1.79344
    D9        2.66448   0.00025   0.00000   0.00777   0.00778   2.67226
   D10        0.43790  -0.00006   0.00000   0.00089   0.00089   0.43879
   D11       -1.24473   0.00014   0.00000  -0.00018  -0.00019  -1.24492
   D12        0.58640  -0.00023   0.00000  -0.00544  -0.00545   0.58094
   D13        2.80657   0.00003   0.00000   0.00064   0.00064   2.80722
   D14        1.78597   0.00013   0.00000  -0.00225  -0.00225   1.78372
   D15       -2.66609  -0.00024   0.00000  -0.00750  -0.00751  -2.67360
   D16       -0.44591   0.00002   0.00000  -0.00142  -0.00142  -0.44733
   D17        1.17359  -0.00010   0.00000  -0.00245  -0.00245   1.17114
   D18       -3.10929  -0.00054   0.00000  -0.00747  -0.00746  -3.11675
   D19       -0.91041  -0.00019   0.00000  -0.00551  -0.00551  -0.91591
   D20       -0.64158  -0.00004   0.00000  -0.00455  -0.00455  -0.64613
   D21        1.35873  -0.00049   0.00000  -0.00957  -0.00957   1.34916
   D22       -2.72558  -0.00013   0.00000  -0.00761  -0.00761  -2.73319
   D23       -2.85498   0.00007   0.00000  -0.00246  -0.00246  -2.85744
   D24       -0.85467  -0.00038   0.00000  -0.00748  -0.00747  -0.86214
   D25        1.34421  -0.00003   0.00000  -0.00551  -0.00551   1.33870
   D26       -0.88174   0.00054   0.00000   0.00920   0.00921  -0.87253
   D27        1.14962   0.00030   0.00000   0.00884   0.00884   1.15846
   D28       -2.93776   0.00049   0.00000   0.01102   0.01102  -2.92673
   D29        1.01835  -0.00003   0.00000   0.00568   0.00568   1.02403
   D30        3.04971  -0.00026   0.00000   0.00532   0.00531   3.05502
   D31       -1.03767  -0.00007   0.00000   0.00750   0.00750  -1.03017
   D32       -3.08952   0.00003   0.00000   0.00273   0.00273  -3.08679
   D33       -1.05816  -0.00020   0.00000   0.00236   0.00236  -1.05580
   D34        1.13765  -0.00001   0.00000   0.00454   0.00454   1.14219
   D35        0.00572  -0.00003   0.00000   0.00305   0.00306   0.00878
   D36        2.10978  -0.00066   0.00000  -0.00495  -0.00496   2.10483
   D37       -2.06008  -0.00026   0.00000  -0.00031  -0.00032  -2.06039
   D38       -2.10906   0.00061   0.00000   0.01220   0.01220  -2.09686
   D39       -0.00500  -0.00002   0.00000   0.00419   0.00419  -0.00081
   D40        2.10833   0.00038   0.00000   0.00883   0.00883   2.11715
   D41        2.06725   0.00024   0.00000   0.00678   0.00679   2.07405
   D42       -2.11187  -0.00039   0.00000  -0.00122  -0.00122  -2.11309
   D43        0.00146   0.00001   0.00000   0.00341   0.00342   0.00487
   D44       -1.95196   0.00014   0.00000   0.00094   0.00093  -1.95104
   D45        0.15918  -0.00005   0.00000  -0.00220  -0.00221   0.15697
   D46        2.22766   0.00017   0.00000   0.00085   0.00084   2.22850
   D47        0.00964   0.00003   0.00000  -0.00303  -0.00302   0.00662
   D48        2.12079  -0.00016   0.00000  -0.00616  -0.00616   2.11463
   D49       -2.09392   0.00006   0.00000  -0.00311  -0.00310  -2.09703
   D50        2.13440  -0.00001   0.00000   0.00024   0.00025   2.13464
   D51       -2.03764  -0.00019   0.00000  -0.00289  -0.00289  -2.04053
   D52        0.03083   0.00003   0.00000   0.00016   0.00016   0.03099
   D53       -1.18102   0.00021   0.00000  -0.00255  -0.00255  -1.18357
   D54        0.63180   0.00010   0.00000  -0.00059  -0.00059   0.63121
   D55        2.84468   0.00008   0.00000  -0.00127  -0.00127   2.84341
   D56       -3.13996   0.00023   0.00000  -0.00130  -0.00131  -3.14126
   D57       -1.32714   0.00012   0.00000   0.00066   0.00066  -1.32648
   D58        0.88574   0.00010   0.00000  -0.00002  -0.00002   0.88572
   D59        0.92804   0.00013   0.00000  -0.00068  -0.00068   0.92736
   D60        2.74086   0.00002   0.00000   0.00128   0.00128   2.74214
   D61       -1.32944   0.00000   0.00000   0.00060   0.00061  -1.32884
   D62       -0.00226  -0.00001   0.00000  -0.00412  -0.00412  -0.00639
   D63       -3.13390   0.00006   0.00000   0.00059   0.00059  -3.13331
   D64        1.94431  -0.00010   0.00000  -0.00577  -0.00577   1.93854
   D65       -1.18733  -0.00003   0.00000  -0.00105  -0.00105  -1.18838
   D66       -2.13810  -0.00006   0.00000  -0.00689  -0.00689  -2.14499
   D67        1.01345   0.00001   0.00000  -0.00217  -0.00217   1.01128
   D68        0.88298  -0.00059   0.00000  -0.00896  -0.00897   0.87401
   D69       -1.14769  -0.00033   0.00000  -0.00883  -0.00883  -1.15652
   D70        2.94643  -0.00056   0.00000  -0.01183  -0.01183   2.93460
   D71       -1.00754  -0.00006   0.00000  -0.00400  -0.00400  -1.01154
   D72       -3.03821   0.00021   0.00000  -0.00387  -0.00386  -3.04207
   D73        1.05592  -0.00002   0.00000  -0.00687  -0.00687   1.04905
   D74        3.09914  -0.00008   0.00000  -0.00198  -0.00197   3.09717
   D75        1.06847   0.00018   0.00000  -0.00185  -0.00184   1.06663
   D76       -1.12059  -0.00005   0.00000  -0.00484  -0.00484  -1.12543
   D77        0.00911   0.00003   0.00000   0.00232   0.00232   0.01143
   D78       -3.13030   0.00007   0.00000   0.00394   0.00394  -3.12635
   D79        3.14045  -0.00004   0.00000  -0.00254  -0.00254   3.13791
   D80        0.00104  -0.00001   0.00000  -0.00092  -0.00092   0.00012
   D81       -0.01180  -0.00005   0.00000   0.00057   0.00057  -0.01123
   D82       -2.12837   0.00028   0.00000   0.00479   0.00479  -2.12358
   D83        2.09423  -0.00016   0.00000  -0.00007  -0.00007   2.09416
   D84        3.12767  -0.00008   0.00000  -0.00101  -0.00101   3.12666
   D85        1.01110   0.00024   0.00000   0.00322   0.00321   1.01431
   D86       -1.04949  -0.00019   0.00000  -0.00164  -0.00164  -1.05113
         Item               Value     Threshold  Converged?
 Maximum Force            0.004115     0.000450     NO 
 RMS     Force            0.000815     0.000300     NO 
 Maximum Displacement     0.046333     0.001800     NO 
 RMS     Displacement     0.009671     0.001200     NO 
 Predicted change in Energy=-1.860274D-04
 GradGradGradGradGradGradGradGradGradGradGradGradGradGradGradGradGradGrad

                          Input orientation:                          
 ---------------------------------------------------------------------
 Center     Atomic      Atomic             Coordinates (Angstroms)
 Number     Number       Type             X           Y           Z
 ---------------------------------------------------------------------
      1          6           0        2.137171   -0.640626   -0.397292
      2          6           0        2.107231    0.695563   -0.391424
      3          6           0        0.837333    1.124666    0.330915
      4          6           0       -0.345187    0.773769   -0.631243
      5          6           0       -0.308280   -0.800169   -0.649054
      6          6           0        0.887093   -1.129455    0.320221
      7          6           0       -1.665643   -1.200198   -0.140586
      8          6           0       -2.435266   -0.155972    0.159278
      9          6           0       -1.751673    1.162546   -0.103649
     10          6           0        0.715364   -0.011890    1.372008
     11          1           0        2.844283   -1.278850   -0.911719
     12          1           0        2.785449    1.368707   -0.900268
     13          1           0        0.816618    2.148633    0.703540
     14          1           0       -0.171143    1.200530   -1.618579
     15          1           0       -0.110625   -1.218081   -1.639636
     16          1           0        0.902136   -2.158323    0.678559
     17          1           0       -1.957757   -2.238302   -0.025438
     18          1           0       -3.443597   -0.221098    0.553600
     19          1           0       -1.692363    1.772917    0.806162
     20          1           0       -2.305062    1.760973   -0.835742
     21          1           0        1.523700    0.002499    2.104420
     22          1           0       -0.248580   -0.041242    1.883629
 ---------------------------------------------------------------------
                    Distance matrix (angstroms):
                    1          2          3          4          5
     1  C    0.000000
     2  C    1.336537   0.000000
     3  C    2.310004   1.522676   0.000000
     4  C    2.866592   2.465357   1.564363   0.000000
     5  C    2.463548   2.852767   2.444946   1.574472   0.000000
     6  C    1.521997   2.307783   2.254695   2.458874   1.573797
     7  C    3.852326   4.229824   3.448507   2.425056   1.503662
     8  C    4.631613   4.654316   3.518437   2.420284   2.364838
     9  C    4.296599   3.897695   2.625497   1.551679   2.496618
    10  C    2.355264   2.355309   1.546128   2.398968   2.398733
    11  H    1.082577   2.170774   3.368810   3.803240   3.199497
    12  H    2.170407   1.082601   2.317439   3.198001   3.786594
    13  H    3.276531   2.230704   1.089856   2.240913   3.433707
    14  H    3.195264   2.636643   2.196203   1.089609   2.227461
    15  H    2.632387   3.184172   3.204709   2.244848   1.093147
    16  H    2.232974   3.277466   3.301980   3.445078   2.252165
    17  H    4.411267   5.026493   4.387377   3.469864   2.275499
    18  H    5.676722   5.704825   4.492999   3.463201   3.407626
    19  H    4.683890   4.126963   2.654327   2.208917   3.264063
    20  H    5.068861   4.560795   3.411836   2.203974   3.252913
    21  H    2.654904   2.655199   2.208094   3.401683   3.403240
    22  H    3.354649   3.356873   2.224741   2.645403   2.644620
                    6          7          8          9         10
     6  C    0.000000
     7  C    2.594958   0.000000
     8  C    3.465781   1.331407   0.000000
     9  C    3.520798   2.364598   1.508284   0.000000
    10  C    1.544247   3.060917   3.379044   3.105340   0.000000
    11  H    2.317453   4.576054   5.502865   5.266518   3.369406
    12  H    3.366625   5.195057   5.541042   4.611137   3.369650
    13  H    3.301176   4.253098   4.022708   2.867062   2.263838
    14  H    3.210550   3.190844   3.182315   2.189642   3.346561
    15  H    2.200985   2.159989   3.125400   3.274093   3.347709
    16  H    1.089589   2.860506   3.926488   4.322352   2.263389
    17  H    3.072815   1.084551   2.144349   3.407984   3.749045
    18  H    4.431078   2.145146   1.084649   2.282335   4.243880
    19  H    3.913246   3.120329   2.165866   1.097190   3.050060
    20  H    4.458776   3.108156   2.163724   1.095589   4.140070
    21  H    2.206797   4.081475   4.413853   4.116958   1.090890
    22  H    2.217703   2.729229   2.787139   2.767249   1.091698
                   11         12         13         14         15
    11  H    0.000000
    12  H    2.648236   0.000000
    13  H    4.297456   2.656460   0.000000
    14  H    3.967338   3.047243   2.695702   0.000000
    15  H    3.043853   3.952896   4.205356   2.419460   0.000000
    16  H    2.659773   4.298780   4.307878   4.208404   2.698846
    17  H    4.976508   6.022777   5.241543   4.189946   2.656761
    18  H    6.542434   6.591072   4.877248   4.177122   4.112537
    19  H    5.731105   4.808960   2.539032   2.919094   4.174912
    20  H    5.980139   5.106010   3.502079   2.341056   3.786366
    21  H    3.533113   3.533650   2.658631   4.262451   4.263659
    22  H    4.348729   4.352398   2.706070   3.716646   3.717173
                   16         17         18         19         20
    16  H    0.000000
    17  H    2.946353   0.000000
    18  H    4.759607   2.571404   0.000000
    19  H    4.711937   4.105103   2.665840   0.000000
    20  H    5.285841   4.095293   2.674910   1.752539   0.000000
    21  H    2.662437   4.655967   5.208559   3.893959   5.137724
    22  H    2.694136   3.375336   3.465467   2.556681   3.856434
                   21         22
    21  H    0.000000
    22  H    1.786516   0.000000
 Stoichiometry    C10H12
 Framework group  C1[X(C10H12)]
 Deg. of freedom    60
 Full point group                 C1      NOp   1
 Largest Abelian subgroup         C1      NOp   1
 Largest concise Abelian subgroup C1      NOp   1
                         Standard orientation:                         
 ---------------------------------------------------------------------
 Center     Atomic      Atomic             Coordinates (Angstroms)
 Number     Number       Type             X           Y           Z
 ---------------------------------------------------------------------
      1          6           0       -2.136706    0.643316   -0.394913
      2          6           0       -2.108097   -0.692908   -0.390576
      3          6           0       -0.838006   -1.124093    0.330183
      4          6           0        0.344034   -0.773294   -0.632601
      5          6           0        0.308685    0.800700   -0.648607
      6          6           0       -0.885521    1.130087    0.322070
      7          6           0        1.666886    1.198799   -0.140861
      8          6           0        2.435722    0.153468    0.157162
      9          6           0        1.750585   -1.164070   -0.106659
     10          6           0       -0.714002    0.011167    1.372450
     11          1           0       -2.843623    1.282826   -0.908009
     12          1           0       -2.787427   -1.364801   -0.899590
     13          1           0       -0.817994   -2.148500    0.701636
     14          1           0        0.168711   -1.198767   -1.620266
     15          1           0        0.110594    1.219925   -1.638547
     16          1           0       -0.899226    2.158565    0.681580
     17          1           0        1.960137    2.236481   -0.024797
     18          1           0        3.444459    0.217142    0.550685
     19          1           0        1.691450   -1.775406    0.802514
     20          1           0        2.302744   -1.762224   -0.839904
     21          1           0       -1.521720   -0.003241    2.105542
     22          1           0        0.250411    0.038979    1.883270
 ---------------------------------------------------------------------
 Rotational constants (GHZ):           2.9026964           1.3406539           1.1564509
 Standard basis: 6-311G(d,p) (5D, 7F)
 There are   262 symmetry adapted cartesian basis functions of A   symmetry.
 There are   252 symmetry adapted basis functions of A   symmetry.
   252 basis functions,   416 primitive gaussians,   262 cartesian basis functions
    36 alpha electrons       36 beta electrons
       nuclear repulsion energy       531.2994672871 Hartrees.
 NAtoms=   22 NActive=   22 NUniq=   22 SFac= 1.00D+00 NAtFMM=   60 NAOKFM=F Big=F
 Integral buffers will be    131072 words long.
 Raffenetti 2 integral format.
 Two-electron integral symmetry is turned on.
 Nuclear repulsion after empirical dispersion term =      531.2552098302 Hartrees.
 ------------------------------------------------------------------------------
 Polarizable Continuum Model (PCM)
 =================================
 Model                : PCM.
 Atomic radii         : UFF (Universal Force Field).
 Polarization charges : Total charges.
 Charge compensation  : None.
 Solution method      : On-the-fly selection.
 Cavity type          : Scaled VdW (van der Waals Surface) (Alpha=1.100).
 Cavity algorithm     : GePol (No added spheres)
                        Default sphere list used, NSphG=   22.
                        Lebedev-Laikov grids with approx.  5.0 points / Ang**2.
                        Smoothing algorithm: York/Karplus (Gamma=1.0000).
                        Polarization charges: spherical gaussians, with
                                              point-specific exponents (IZeta= 3).
                        Self-potential: point-specific (ISelfS= 7).
                        Self-field    : sphere-specific E.n sum rule (ISelfD= 2).
 1st derivatives      : Analytical E(r).r(x)/FMM algorithm (CHGder, D1EAlg=3).
                        Cavity 1st derivative terms included.
 Solvent              : Cis-Decalin, Eps=   2.213900 Eps(inf)=   2.193361
 ------------------------------------------------------------------------------
 One-electron integrals computed using PRISM.
 NBasis=   252 RedAO= T EigKep=  4.75D-04  NBF=   252
 NBsUse=   252 1.00D-06 EigRej= -1.00D+00 NBFU=   252
 Initial guess from the checkpoint file:  "03.chk"
 B after Tr=     0.000000   -0.000000    0.000000
         Rot=    0.999998   -0.000851   -0.001541    0.000539 Ang=  -0.21 deg.
 ExpMin= 1.03D-01 ExpMax= 4.56D+03 ExpMxC= 6.82D+02 IAcc=2 IRadAn=         4 AccDes= 0.00D+00
 Harris functional with IExCor=  402 and IRadAn=       4 diagonalized for initial guess.
 HarFok:  IExCor=  402 AccDes= 0.00D+00 IRadAn=         4 IDoV= 1 UseB2=F ITyADJ=14
 ICtDFT=  3500011 ScaDFX=  1.000000  1.000000  1.000000  1.000000
 FoFCou: FMM=F IPFlag=           0 FMFlag=      100000 FMFlg1=           0
         NFxFlg=           0 DoJE=T BraDBF=F KetDBF=T FulRan=T
         wScrn=  0.000000 ICntrl=       500 IOpCl=  0 I1Cent=   200000004 NGrid=           0
         NMat0=    1 NMatS0=      1 NMatT0=    0 NMatD0=    1 NMtDS0=    0 NMtDT0=    0
 Petite list used in FoFCou.
 Requested convergence on RMS density matrix=1.00D-08 within 128 cycles.
 Requested convergence on MAX density matrix=1.00D-06.
 Requested convergence on             energy=1.00D-06.
 No special actions if energy rises.
 Inv3:  Mode=1 IEnd=     7133292.
 Iteration    1 A*A^-1 deviation from unit magnitude is 4.22D-15 for   1537.
 Iteration    1 A*A^-1 deviation from orthogonality  is 1.67D-15 for   1526   1406.
 Iteration    1 A^-1*A deviation from unit magnitude is 4.22D-15 for   1537.
 Iteration    1 A^-1*A deviation from orthogonality  is 1.71D-15 for   1163    632.
 Error on total polarization charges =  0.00675
 SCF Done:  E(RB3LYP) =  -388.371837440     A.U. after    9 cycles
            NFock=  9  Conv=0.72D-08     -V/T= 2.0047
 D1PCM: PCM CHGder 1st derivatives, ID1Alg=3 FixD1E=F DoIter=F DoCFld=F I1PDM=0.
 Calling FoFJK, ICntrl=      2127 FMM=F ISym2X=0 I1Cent= 0 IOpClX= 0 NMat=1 NMatS=1 NMatT=0.
 ***** Axes restored to original set *****
 -------------------------------------------------------------------
 Center     Atomic                   Forces (Hartrees/Bohr)
 Number     Number              X              Y              Z
 -------------------------------------------------------------------
      1        6           0.000266416    0.000077723    0.000258304
      2        6           0.000259514    0.000031441    0.000286948
      3        6          -0.000300959    0.000101856    0.000076968
      4        6           0.000037091    0.000059194   -0.000447825
      5        6           0.000021658   -0.000241785   -0.000757884
      6        6          -0.000389917   -0.000200641    0.000213445
      7        6          -0.000083532   -0.000120582   -0.000001150
      8        6          -0.000518761    0.000058754    0.000055345
      9        6          -0.000222648    0.000438045   -0.000116342
     10        6           0.000847061    0.000042004    0.000536294
     11        1          -0.000043396   -0.000097646   -0.000065575
     12        1          -0.000037132    0.000084335   -0.000061801
     13        1          -0.000005617   -0.000047287   -0.000000134
     14        1          -0.000099530   -0.000108217   -0.000060584
     15        1          -0.000012990    0.000058236   -0.000021717
     16        1          -0.000013678    0.000054456    0.000019813
     17        1           0.000060929   -0.000064075   -0.000040726
     18        1          -0.000063780    0.000050407    0.000088940
     19        1           0.000009043   -0.000073046   -0.000011008
     20        1          -0.000089564   -0.000058161    0.000086948
     21        1           0.000088391   -0.000015847    0.000064758
     22        1           0.000291400   -0.000029163   -0.000103017
 -------------------------------------------------------------------
 Cartesian Forces:  Max     0.000847061 RMS     0.000222152

 GradGradGradGradGradGradGradGradGradGradGradGradGradGradGradGradGradGrad
 Berny optimization.
 Using GEDIIS/GDIIS optimizer.
 FormGI is forming the generalized inverse of G from B-inverse, IUseBI=4.
 Internal  Forces:  Max     0.000751830 RMS     0.000144059
 Search for a local minimum.
 Step number   2 out of a maximum of  132
 All quantities printed in internal units (Hartrees-Bohrs-Radians)
 Mixed Optimization -- En-DIIS/RFO-DIIS
 Swapping is turned off.
 Update second derivatives using D2CorX and points    1    2
 DE= -1.58D-04 DEPred=-1.86D-04 R= 8.48D-01
 TightC=F SS=  1.41D+00  RLast= 5.66D-02 DXNew= 5.0454D-01 1.6973D-01
 Trust test= 8.48D-01 RLast= 5.66D-02 DXMaxT set to 3.00D-01
 ITU=  1  0
     Eigenvalues ---    0.00397   0.00923   0.01088   0.01253   0.01528
     Eigenvalues ---    0.01668   0.01800   0.01839   0.02600   0.02948
     Eigenvalues ---    0.03420   0.04008   0.04213   0.04581   0.04669
     Eigenvalues ---    0.04885   0.04980   0.05336   0.05441   0.05630
     Eigenvalues ---    0.05715   0.06599   0.06720   0.07208   0.07777
     Eigenvalues ---    0.08325   0.09342   0.09836   0.11166   0.11717
     Eigenvalues ---    0.15689   0.15850   0.15990   0.16004   0.16722
     Eigenvalues ---    0.19137   0.21615   0.21812   0.23995   0.24078
     Eigenvalues ---    0.26209   0.27000   0.27414   0.29489   0.29680
     Eigenvalues ---    0.31861   0.32859   0.33778   0.33961   0.34187
     Eigenvalues ---    0.34439   0.34485   0.34507   0.34582   0.35160
     Eigenvalues ---    0.35207   0.35400   0.35424   0.50199   0.54526
 En-DIIS/RFO-DIIS/Sim-DIIS IScMMF=       -3 using points:     2    1
 RFO step:  Lambda=-2.47080185D-05.
 DidBck=F Rises=F RFO-DIIS coefs:    0.80604    0.19396
 Iteration  1 RMS(Cart)=  0.00288592 RMS(Int)=  0.00000524
 Iteration  2 RMS(Cart)=  0.00000697 RMS(Int)=  0.00000174
 Iteration  3 RMS(Cart)=  0.00000000 RMS(Int)=  0.00000174
 Variable       Old X    -DE/DX   Delta X   Delta X   Delta X     New X
                                 (Linear)    (Quad)   (Total)
    R1        2.52569   0.00004   0.00122  -0.00097   0.00026   2.52595
    R2        2.87616   0.00010   0.00074  -0.00030   0.00043   2.87659
    R3        2.04577   0.00006   0.00088  -0.00094  -0.00006   2.04571
    R4        2.87744   0.00005   0.00072  -0.00049   0.00023   2.87767
    R5        2.04582   0.00006   0.00087  -0.00094  -0.00007   2.04575
    R6        2.95622   0.00075   0.00191  -0.00014   0.00177   2.95799
    R7        2.92176   0.00020   0.00081  -0.00047   0.00034   2.92210
    R8        2.05953  -0.00004   0.00114  -0.00153  -0.00039   2.05914
    R9        2.97532   0.00016   0.00089  -0.00154  -0.00066   2.97466
   R10        2.93225   0.00051   0.00177  -0.00066   0.00110   2.93335
   R11        2.05906  -0.00000   0.00111  -0.00139  -0.00028   2.05878
   R12        2.97405   0.00075   0.00199  -0.00006   0.00193   2.97598
   R13        2.84151   0.00036   0.00131  -0.00057   0.00074   2.84225
   R14        2.06575  -0.00000   0.00114  -0.00142  -0.00029   2.06546
   R15        2.91820   0.00015   0.00068  -0.00045   0.00023   2.91843
   R16        2.05902  -0.00004   0.00112  -0.00150  -0.00038   2.05864
   R17        2.51599   0.00043   0.00154  -0.00124   0.00030   2.51629
   R18        2.04950   0.00004   0.00088  -0.00099  -0.00011   2.04939
   R19        2.85024   0.00022   0.00079  -0.00040   0.00039   2.85063
   R20        2.04969   0.00009   0.00085  -0.00084   0.00001   2.04970
   R21        2.07339  -0.00005   0.00087  -0.00121  -0.00034   2.07305
   R22        2.07036  -0.00004   0.00098  -0.00133  -0.00035   2.07001
   R23        2.06148   0.00011   0.00089  -0.00083   0.00006   2.06154
   R24        2.06301  -0.00030   0.00082  -0.00178  -0.00097   2.06204
    A1        1.87614   0.00002  -0.00017   0.00008  -0.00009   1.87605
    A2        2.22195   0.00007   0.00007   0.00026   0.00033   2.22228
    A3        2.17870  -0.00009   0.00016  -0.00073  -0.00057   2.17814
    A4        1.87811  -0.00000  -0.00018  -0.00005  -0.00024   1.87787
    A5        2.22122   0.00006   0.00008   0.00026   0.00034   2.22156
    A6        2.17757  -0.00007   0.00015  -0.00054  -0.00039   2.17718
    A7        1.84984   0.00005   0.00061  -0.00009   0.00053   1.85037
    A8        1.74982  -0.00019  -0.00089  -0.00225  -0.00314   1.74668
    A9        2.02953  -0.00002  -0.00033   0.00007  -0.00026   2.02928
   A10        1.76158   0.00028   0.00109   0.00268   0.00377   1.76534
   A11        1.98960  -0.00006  -0.00008  -0.00019  -0.00027   1.98932
[...]
 ,-0.00073514,-0.00133210,0.00040860,0.00093068,-0.00068524,0.12031108,
 0.16922053,-0.00069695,-0.00376593,0.00594255,0.09513011,0.08789322,-0
 .10161166,0.00288461,0.00807435,-0.00150919,0.00040333,-0.00055193,-0.
 00113917,0.00114382,0.00091305,-0.00082146,0.00479111,-0.00137131,0.00
 675902,0.00028429,-0.00036054,0.00032871,0.00017770,0.00004372,0.00003
 240,0.00010048,0.00012712,0.00021523,0.00230503,0.00013982,-0.00100662
 ,-0.00296462,0.00060255,-0.00405800,-0.10245572,-0.09219947,0.09693604
 ,-0.00421199,0.00161844,0.00317813,0.00267523,0.02579895,0.00638024,-0
 .04674569,0.00389345,0.00339505,-0.00011655,-0.02134289,-0.00579294,-0
 .00276314,-0.00092608,-0.00300003,-0.00051130,-0.00034611,0.00061524,0
 .00041282,-0.00085569,-0.00002587,0.00009387,-0.00009974,0.00009425,0.
 00167437,-0.00069475,-0.00065191,-0.00168052,-0.00208985,-0.00145779,-
 0.00037662,0.00150419,-0.00060951,0.00061008,-0.00102969,-0.00059101,0
 .05038455,-0.00014448,-0.00031179,-0.00067742,-0.00066977,-0.00226700,
 0.00039394,0.00490918,-0.28315631,-0.08568059,0.00090277,-0.00281017,-
 0.00019145,0.00050122,0.00013796,-0.00007976,-0.00023717,-0.00340043,0
 .00251698,0.00032411,0.00019506,-0.00024973,-0.00014688,-0.00005739,0.
 00035174,0.00029129,0.00040215,-0.00031464,0.00075214,-0.01287818,-0.0
 0923355,0.00000751,-0.00015602,-0.00001960,0.00063406,0.00012834,-0.00
 027021,-0.00587526,0.30433317,0.00317936,-0.00088051,-0.00127675,-0.00
 296386,-0.01260848,-0.00435275,0.00382699,-0.08580191,-0.07972878,0.00
 074449,-0.01783306,-0.00541854,-0.00261137,0.00056432,-0.00219473,0.00
 044891,0.00445720,-0.00374795,0.00026338,-0.00049395,-0.00014365,-0.00
 002627,-0.00012322,0.00024016,0.00126437,0.00047447,0.00009363,-0.0014
 6471,0.01954230,0.01169042,0.00018870,-0.00067301,0.00073025,-0.000246
 69,0.00043976,0.00021552,-0.00233453,0.09396264,0.08083983,0.00049948,
 -0.00000146,0.00039503,0.00125074,-0.00011972,-0.00169796,0.00092641,0
 .01063879,-0.02092260,-0.05180409,-0.01809034,0.04084673,-0.00023006,0
 .00071825,-0.00038019,0.00001663,0.00039509,-0.00072819,-0.00064998,-0
 .00041123,-0.00000218,-0.00281813,0.00124711,0.00137544,-0.00641551,-0
 .00930094,0.02511105,-0.00418353,-0.00097297,-0.00340646,-0.00008985,0
 .00004157,-0.00003647,-0.00019182,-0.00013085,0.00002526,0.00047559,-0
 .00036471,0.00034746,0.06437400,-0.00026802,-0.00005123,-0.00005837,0.
 00092098,0.00052609,0.00010748,0.00156413,0.00491349,-0.00945252,-0.01
 791756,-0.08672506,0.09498363,-0.00405038,-0.01019064,0.02635578,-0.00
 084172,-0.00352500,0.00072710,0.00088621,-0.00315224,0.00011627,0.0004
 3279,-0.00119941,-0.00070577,0.00354499,0.00415037,-0.00886450,-0.0015
 2637,-0.00082726,-0.00125305,0.00005778,0.00002663,-0.00002912,0.00014
 559,0.00000633,0.00008802,0.00048856,-0.00003465,0.00027527,0.01606994
 ,0.09328588,0.00051237,0.00118322,-0.00001235,0.00167839,-0.00181629,0
 .00084100,0.00099546,0.00836760,-0.01637651,0.04030575,0.09674684,-0.2
 6655448,0.00048826,-0.00392798,0.00441078,-0.00117888,-0.00120191,-0.0
 0022802,0.00024640,-0.00028513,0.00016699,0.00066699,-0.00085457,-0.00
 037439,0.00034555,0.00372692,-0.00744880,-0.00337057,-0.00159152,-0.00
 181418,-0.00008905,0.00004932,0.00000844,-0.00060559,0.00017683,0.0000
 1591,-0.00000481,-0.00047820,-0.00017562,-0.04104209,-0.10140538,0.285
 13824,0.00123088,0.00014621,-0.00168936,0.00056490,0.00004129,0.000396
 40,0.00006293,-0.00043091,-0.00066565,-0.00092188,-0.00057901,-0.00016
 352,-0.05134778,0.01794339,0.04701528,0.00092740,-0.00959461,-0.021423
 79,-0.00789579,0.01291738,0.02755984,-0.00289835,-0.00243554,0.0012611
 9,-0.00042863,0.00040124,0.00150413,-0.00416926,0.00080808,-0.00329764
 ,-0.00018124,0.00012362,0.00002548,-0.00009790,-0.00004021,-0.00005022
 ,-0.00020076,-0.00013900,-0.00004126,0.00064137,0.00005596,-0.00015458
 ,0.06496855,-0.00086296,0.00043761,-0.00022721,0.00020414,-0.00004707,
 0.00004431,0.00098367,-0.00320434,-0.00057054,0.00461472,-0.00845114,-
 0.02394281,0.01536176,-0.08391806,-0.08748755,-0.00074481,0.00407979,0
 .00867763,0.00001005,0.00572921,0.00985107,-0.00174724,-0.00068172,0.0
 0047523,-0.00057631,-0.00275276,-0.00141517,0.00133112,-0.00085754,0.0
 0099384,-0.00013785,0.00001283,-0.00007944,-0.00006839,0.00002159,0.00
 002273,-0.00074854,-0.00032381,-0.00073409,0.00005682,0.00171571,0.000
 45569,-0.01900852,0.08801771,0.00186892,0.00191187,0.00087914,0.000553
 38,-0.00118507,0.00005415,-0.00118181,0.00098334,-0.00029064,0.0001583
 3,0.00330258,0.00414197,0.04405814,-0.09081508,-0.25726250,0.00039845,
 -0.00773891,-0.01754707,0.00339767,-0.00402092,-0.00762218,0.00130297,
 0.00129463,-0.00041230,-0.00009119,0.00052574,-0.00020182,-0.00327288,
 0.00142121,-0.00172040,-0.00056469,-0.00018094,0.00002200,-0.00010248,
 -0.00004271,-0.00001086,0.00002139,-0.00001876,0.00022687,-0.00016973,
 -0.00054475,0.00096745,-0.04695581,0.09566549,0.27877075,0.00372012,-0
 .02558437,0.00596252,-0.00411325,-0.00182682,0.00314620,-0.00058442,0.
 00040760,0.00065407,-0.00244909,0.00101058,-0.00287228,0.00004581,0.02
 137346,-0.00498973,-0.04677276,0.00479197,0.00003398,0.00171483,0.0000
 3271,0.00045064,-0.00005495,0.00023842,0.00019092,0.00022503,0.0004944
 7,-0.00017237,-0.00174148,0.00259160,-0.00187657,0.00060947,0.00105884
 ,-0.00059182,-0.00030627,-0.00150953,-0.00061450,0.00050348,0.00006669
 ,-0.00007849,-0.00016919,0.00091960,0.00006604,0.00038475,-0.00042356,
 -0.00011855,0.04957681,0.00103087,-0.00334291,-0.00023820,-0.00006514,
 -0.00040804,0.00082381,0.00037324,-0.00322793,-0.00238279,-0.00068853,
 0.00011312,-0.00019426,-0.00043226,-0.00177366,-0.00016349,0.00305706,
 -0.28646236,0.08330816,-0.00023521,0.00024660,0.00012165,0.00028988,-0
 .00002394,-0.00018760,-0.00010869,0.00004634,0.00031556,-0.00036183,-0
 .01264215,0.00880838,-0.00060057,0.00015861,0.00024373,-0.00001828,-0.
 00022414,-0.00002467,0.00001565,-0.00082293,0.00094750,0.00012056,-0.0
 0018700,0.00004388,0.00032159,-0.00001673,0.00039921,-0.00321321,0.307
 71615,-0.00357950,0.01249217,-0.00411708,0.00319794,0.00105810,-0.0012
 6428,0.00069353,-0.00449315,-0.00377179,-0.00245952,-0.00061206,-0.002
 13394,0.00041422,0.01738077,-0.00499467,0.00115515,0.08389686,-0.07762
 464,0.00123893,-0.00040495,0.00053442,-0.00026018,0.00002893,0.0001576
 7,0.00017123,0.00033512,-0.00021991,-0.00063267,-0.01984792,0.01167588
 ,-0.00024747,-0.00046439,0.00021104,0.00016245,0.00067719,0.00074595,-
 0.00007328,-0.00099844,0.00139752,-0.00001212,0.00071827,0.00023975,0.
 00031057,-0.00028259,-0.00019645,0.00083201,-0.09125571,0.07810318,0.0
 0002813,0.00022788,0.00004820,0.00017131,-0.00015028,-0.00018777,0.000
 21060,-0.00054033,0.00018815,-0.00383958,-0.00030641,0.00259760,-0.000
 78154,-0.02348506,0.00010996,0.00131874,-0.00025412,0.00037717,-0.0744
 2240,-0.07422701,0.01421325,0.00950400,0.01907497,-0.00188612,-0.00083
 532,0.00232989,0.00480060,-0.00003655,0.00012867,-0.00001887,-0.000002
 64,0.00000586,0.00004090,0.00000684,0.00002380,-0.00000518,-0.00024906
 ,-0.00010608,-0.00025425,-0.00007367,-0.00104793,-0.00012654,0.0004141
 4,0.00062999,0.00051450,-0.00037207,0.00043744,-0.00039038,0.06849643,
 -0.00018008,0.00009789,-0.00013747,0.00004879,0.00003702,-0.00011528,0
 .00003011,-0.00014592,0.00015180,0.00065343,0.00009123,-0.00000844,0.0
 0249154,-0.00147399,-0.00062433,-0.00018342,-0.00008542,0.00015127,-0.
 06970321,-0.31001928,0.02684462,-0.01126181,-0.01551967,0.00439439,0.0
 0171778,-0.00148144,-0.00074118,-0.00005021,0.00005634,0.00000512,-0.0
 0000748,0.00000808,0.00004012,0.00001339,0.00000451,0.00006357,-0.0000
 6519,0.00004771,-0.00004502,-0.00015931,-0.00024936,0.00000882,-0.0005
 8239,-0.00001150,0.00031135,-0.00025819,0.00013492,-0.00019467,0.07734
 449,0.32922933,0.00002596,-0.00005033,-0.00002023,-0.00013121,0.000073
 52,-0.00000800,0.00009093,0.00081248,0.00012320,0.00237564,0.00021626,
 0.00095717,0.00017666,0.00924909,0.00091220,0.00029356,0.00005458,0.00
 005265,0.01470693,0.02879874,-0.04249399,-0.00211981,-0.00740247,0.005
 47027,0.00488853,-0.00098014,0.00986721,-0.00012193,0.00001239,-0.0001
 9500,0.00004099,-0.00000019,-0.00001741,0.00002360,0.00000793,-0.00003
 121,0.00030898,-0.00005094,0.00010975,0.00008493,0.00014159,-0.0000582
 2,-0.00069798,-0.00051167,0.00011192,-0.00001652,-0.00005509,0.0001364
 6,-0.01726743,-0.03010394,0.03033458,-0.00007090,-0.00008928,-0.000203
 64,-0.00009373,0.00007650,-0.00026706,-0.00002858,-0.00006484,0.000354
 64,0.00032030,-0.00049301,0.00089134,0.00128232,0.00162728,0.00458220,
 0.00032425,0.00023305,-0.00003232,-0.01022046,-0.00636932,0.00592480,-
 0.29322012,-0.01379636,0.09970937,-0.00490449,0.00362819,0.00233914,-0
 .00008686,-0.00001376,0.00000576,0.00004113,0.00002860,0.00005033,-0.0
 0001783,-0.00000439,0.00002585,-0.00003551,-0.00003236,-0.00005212,-0.
 00055194,0.00001295,0.00008038,-0.00138617,-0.00014196,0.00025275,-0.0
 0008002,0.00004026,-0.00006654,-0.00021330,0.00046696,-0.00217767,0.30
 900472,-0.00010589,0.00005437,0.00025390,0.00001917,0.00011847,-0.0003
 3924,-0.00050350,0.00023995,0.00066359,-0.00128962,-0.00470537,0.00071
 845,0.00139652,-0.00386596,-0.00074560,0.00037409,0.00035362,-0.000500
 00,0.02420728,0.00727655,-0.00920165,-0.01830183,-0.05848049,0.0068588
 1,-0.02179973,0.00497504,0.00843348,0.00000370,-0.00010432,0.00004385,
 0.00005777,0.00003321,0.00001888,-0.00005582,0.00002168,0.00000166,0.0
 0004715,0.00002875,0.00003214,-0.00096497,0.00029695,0.00027626,0.0007
 2161,0.00038967,-0.00027753,-0.00004198,0.00001855,-0.00002585,-0.0008
 6553,0.00072652,0.00035700,0.01578751,0.05174392,0.00079293,0.00039537
 ,0.00013767,0.00070885,-0.00037970,-0.00006117,-0.00011804,-0.00020668
 ,-0.00055313,0.00080945,0.00025114,0.00220910,0.00436558,-0.00034884,0
 .01099809,0.00111565,0.00056236,-0.00165456,0.00545887,0.00243872,0.00
 275794,0.10012896,0.00507748,-0.07690633,0.00229325,-0.00155552,0.0001
 3913,-0.00005150,-0.00002552,-0.00016735,0.00012524,0.00002092,0.00002
 313,-0.00002275,0.00002154,-0.00003697,-0.00002321,0.00004169,0.000006
 56,-0.00015111,0.00022933,0.00005354,-0.00182683,-0.00061133,0.0003210
 8,-0.00003911,-0.00005640,-0.00000281,-0.00214474,-0.00016000,-0.00490
 576,-0.11146845,-0.00606742,0.06748370,0.00004650,-0.00015943,0.000142
 80,0.00011461,0.00005936,0.00004994,0.00148427,0.00090259,0.00099709,0
 .00033088,0.01481805,0.02218977,-0.00308139,0.00037602,0.00179770,0.00
 062887,0.00017878,0.00039824,-0.00121661,-0.00192757,0.00075707,0.0004
 6035,-0.00736445,-0.01415475,-0.04740330,-0.00989282,-0.01396455,-0.00
 018329,-0.00003165,-0.00023272,-0.00002891,-0.00003310,-0.00008358,0.0
 0007572,0.00000963,-0.00004658,-0.00020014,-0.00057606,-0.00012414,-0.
 00255781,0.00100587,0.00129903,-0.00004344,0.00116435,-0.00018766,-0.0
 0015941,-0.00005570,-0.00018519,0.00074527,-0.00013449,0.00082742,0.00
 004234,0.00044902,0.00041698,0.05192815,-0.00008889,0.00024154,0.00022
 776,0.00008475,0.00001690,-0.00008803,-0.00090358,0.00102281,-0.000227
 82,-0.00029382,-0.00327688,-0.00379218,-0.00003236,-0.00141432,-0.0019
 0565,-0.00051364,-0.00006869,-0.00017078,-0.00265265,-0.00191469,0.000
 80815,-0.00105287,-0.01888624,-0.02322636,-0.00771503,-0.11679858,-0.1
 1401181,0.00056800,0.00012560,-0.00032626,-0.00003763,0.00002468,0.000
 01782,-0.00006097,0.00003704,0.00001652,0.00043116,0.00022334,0.000316
 22,0.00006775,-0.00024202,-0.00003661,0.00058509,-0.00047305,-0.000019
 11,0.00003470,0.00006778,0.00007580,0.00119845,-0.00071079,0.00184400,
 -0.00026707,0.00043728,0.00064974,0.00954219,0.13188095,-0.00014872,0.
 00025293,0.00018290,-0.00007836,0.00024724,-0.00000603,-0.00193871,-0.
 00003048,0.00035419,0.00085367,-0.00350323,-0.00751614,0.00009600,0.00
 053600,-0.00092298,-0.00023513,0.00006552,0.00027780,-0.00011376,0.001
 13490,-0.00014208,-0.00014020,0.00314398,0.00899910,-0.01208676,-0.113
 04699,-0.21908190,0.00044356,-0.00003479,0.00047806,-0.00003386,0.0000
 1316,0.00002680,-0.00004036,0.00000149,-0.00003220,0.00065647,0.000452
 13,0.00052726,0.00144998,-0.00097532,-0.00019422,0.00004802,-0.0003986
 1,0.00015538,0.00008602,-0.00001194,0.00002915,-0.00043150,0.00012083,
 -0.00061225,-0.00024643,-0.00086958,0.00001948,0.01444061,0.12497934,0
 .23803210,0.00001180,0.00057158,-0.00008911,-0.00020352,-0.00054835,-0
 .00069721,-0.00267994,0.00176978,0.00202129,-0.01373593,0.01332245,-0.
 01777721,-0.00197278,-0.00038741,0.00048704,-0.00054915,0.00075938,-0.
 00033319,-0.00128457,-0.00189896,0.00039651,0.01129345,-0.00777003,0.0
 1230258,-0.10971078,0.06642137,-0.08488636,0.00043523,-0.00017030,0.00
 053678,0.00011146,0.00006605,0.00019144,-0.00018944,0.00007264,0.00011
 437,0.00008760,-0.00008855,-0.00002596,0.00133791,-0.00048688,-0.00007
 390,0.00009474,0.00017742,-0.00002558,-0.00022675,0.00014551,-0.000137
 34,-0.00008948,-0.00017225,-0.00132361,-0.00009543,0.00087645,-0.00038
 508,-0.00125448,0.00136971,-0.00259232,0.11869939,-0.00014474,-0.00022
 356,0.00031726,-0.00003357,0.00023812,0.00010708,-0.00004836,-0.000105
 58,-0.00055652,0.00191412,-0.00260708,0.00344926,0.00085833,-0.0008343
 4,0.00122905,0.00052997,-0.00011462,-0.00026265,-0.00304160,-0.0019958
 3,0.00120937,0.01442540,-0.01923114,0.01870048,0.06931942,-0.11596169,
 0.09229894,-0.00011840,0.00003834,-0.00015767,0.00001360,0.00001200,-0
 .00005728,-0.00001359,0.00001941,-0.00005274,0.00008748,0.00008653,0.0
 0006005,-0.00019154,0.00101721,-0.00037265,0.00003200,-0.00003649,-0.0
 0007633,0.00002436,0.00000084,0.00005190,-0.00039191,-0.00068442,-0.00
 236974,-0.00061686,0.00037590,-0.00028035,-0.00852717,0.01019147,-0.01
 197907,-0.07396140,0.12992647,-0.00008446,-0.00006851,0.00010579,-0.00
 003462,0.00013004,0.00008501,0.00055928,-0.00041962,-0.00027417,0.0078
 4591,-0.00718330,0.00707376,0.00083435,-0.00034130,-0.00065988,0.00014
 974,-0.00047000,0.00038524,0.00129160,0.00020335,-0.00016071,-0.001813
 59,0.00266746,-0.00183229,-0.08744236,0.09250178,-0.16247185,0.0003221
 0,-0.00010288,-0.00018128,-0.00006885,-0.00000994,0.00001111,-0.000019
 58,0.00000353,0.00001003,0.00008657,0.00013326,-0.00001540,-0.00007691
 ,-0.00024200,0.00177728,-0.00012494,-0.00002636,0.00002256,0.00008134,
 -0.00002770,0.00009238,-0.00003544,0.00002637,0.00023667,0.00030624,0.
 00038674,0.00009098,-0.01397467,0.01429274,-0.02060068,0.09237511,-0.1
 0127394,0.17597467,0.00136330,-0.00000037,0.00141927,0.00134579,0.0000
 6718,0.00139407,-0.00016378,0.00018657,0.00230525,0.00050382,0.0000910
 4,0.00077164,0.00018884,0.00006797,0.00104244,0.00067548,-0.00014921,0
 .00327539,-0.00000074,0.00030904,-0.00040472,0.00027829,-0.00016166,-0
 .00025870,0.00019354,-0.00020291,0.00002974,-0.19904304,-0.00291728,-0
 .13249414,0.00006531,0.00006350,-0.00019480,0.00008082,-0.00006478,-0.
 00018479,0.00009699,0.00041999,-0.00029080,0.00015204,0.00002450,-0.00
 013104,0.00024472,-0.00003691,-0.00001590,0.00011658,-0.00041541,-0.00
 035242,-0.00001681,-0.00004827,0.00000994,-0.00006285,-0.00000714,0.00
 002513,0.00014670,-0.00017204,0.00007884,-0.00003850,0.00003619,-0.000
 10747,0.21210518,-0.00102217,-0.00040935,0.00023850,0.00114875,-0.0003
 6972,-0.00025835,0.01843302,0.00162554,0.01712083,-0.00112004,-0.00355
 053,0.00442997,0.00091612,-0.00349516,-0.00413965,-0.01826557,0.000973
 36,-0.01667167,0.00066965,0.00013051,-0.00024260,-0.00005404,-0.000256
 94,0.00018839,-0.00046670,0.00009016,0.00000680,-0.00284507,-0.0434174
 0,-0.00247904,0.00012701,0.00003585,0.00008300,-0.00011974,0.00002044,
 -0.00008855,0.00019879,0.00036043,-0.00098512,0.00142525,0.00060379,0.
 00113206,-0.00136851,0.00049716,-0.00107031,-0.00019430,0.00031281,0.0
 0096076,-0.00002442,0.00000092,-0.00002503,0.00000593,0.00008730,0.000
 00727,-0.00003953,0.00008567,-0.00017289,0.00004027,0.00003745,-0.0000
 1253,0.00307299,0.04697857,-0.00089083,-0.00107250,0.00098711,-0.00094
 572,0.00097789,0.00105414,-0.01166680,-0.00245694,-0.01127499,0.000749
 36,0.00116660,-0.00323018,0.00060631,-0.00105832,-0.00319758,-0.011889
 12,0.00205352,-0.01141863,0.00065556,-0.00001139,0.00010263,-0.0002309
 0,0.00016514,0.00039957,0.00021628,-0.00004185,-0.00004082,-0.12763775
 ,-0.00237045,-0.16194727,0.00009991,-0.00001437,-0.00003571,0.00009746
 ,0.00002186,-0.00002845,0.00015172,0.00023744,0.00050632,-0.00096154,-
 0.00014651,-0.00065535,-0.00096163,0.00008425,-0.00067747,0.00017654,-
 0.00023877,0.00050404,-0.00007579,-0.00003733,0.00004055,-0.00005228,-
 0.00001107,0.00003399,-0.00009907,0.00013322,0.00005325,-0.00004134,0.
 00003491,0.00006476,0.14189396,0.00251821,0.17742611,-0.00015170,-0.00
 035020,0.00093010,0.00004603,0.00079460,0.00062760,-0.00025770,0.00003
 708,-0.00085090,-0.00008716,-0.00001834,-0.00013400,-0.00045954,0.0000
 2878,-0.00015727,-0.00207089,-0.00010159,0.00039466,-0.00060677,-0.000
 37887,-0.00136042,-0.00098778,0.00012578,-0.00148245,-0.00038070,0.000
 21596,-0.00056487,-0.25408557,-0.00578989,0.10710123,0.00019814,-0.000
 08551,0.00036716,0.00028556,-0.00000249,0.00022361,0.00007672,-0.00042
 864,0.00025076,0.00006141,0.00000901,0.00009243,0.00003684,-0.00003697
 ,0.00015977,0.00013276,0.00036277,0.00022056,0.00003697,0.00003981,0.0
 0000209,0.00005315,-0.00000425,-0.00001006,0.00012512,-0.00009125,-0.0
 0006705,-0.00004084,-0.00015170,-0.00006934,-0.01823170,-0.00051768,0.
 01080567,0.27630765,-0.00054974,-0.00312110,-0.00330614,0.00059888,-0.
 00312736,0.00329804,-0.02223758,0.00157529,0.01063372,-0.00062680,0.00
 051913,-0.00074367,0.00054297,0.00050646,0.00052398,0.02215311,0.00256
 772,-0.01080286,-0.00004669,-0.00024643,-0.00031641,-0.00015650,0.0006
 7023,0.00007114,0.00027312,0.00036048,0.00058201,-0.00620771,-0.047835
 02,0.00412395,0.00086485,0.00070715,-0.00067270,-0.00090082,0.00068055
 ,0.00069900,-0.00001003,0.00027523,-0.00089351,-0.00007307,-0.00015858
 ,-0.00019720,0.00008123,-0.00012708,0.00017500,0.00000695,0.00031608,0
 .00090386,-0.00000236,-0.00005268,-0.00001801,-0.00001802,-0.00002160,
 -0.00000382,0.00023611,-0.00056981,0.00007536,-0.00010848,-0.00014899,
 -0.00016718,-0.00016298,-0.00034084,0.00006647,0.00634359,0.04757115,0
 .00217882,-0.00209754,-0.00193717,0.00212238,0.00222591,-0.00184596,0.
 01391089,-0.00285652,-0.00718409,0.00085883,0.00030317,0.00005833,0.00
 079475,-0.00022050,0.00004653,0.01413573,0.00342987,-0.00733218,0.0002
 0400,-0.00074890,-0.00023661,-0.00104785,0.00029114,0.00032072,-0.0003
 1948,0.00035061,-0.00061919,0.10179796,0.00346385,-0.10743381,0.000348
 19,0.00049824,-0.00089677,0.00037873,-0.00048465,-0.00091558,-0.000323
 16,0.00017347,0.00047010,-0.00004833,-0.00006546,0.00027277,-0.0000677
 1,0.00001715,0.00026842,-0.00031034,-0.00017526,0.00049813,-0.00006633
 ,0.00004940,-0.00001056,0.00004372,-0.00000684,0.00001372,-0.00026375,
 0.00044330,-0.00002699,-0.00003690,-0.00001939,0.00026601,-0.01781086,
 -0.00054004,0.01133397,-0.11647929,-0.00403103,0.11489019\\-0.00001664
 ,-0.00002634,-0.00000251,0.00002366,0.00003818,0.00002869,0.00001504,-
 0.00001818,-0.00002397,-0.00001269,0.00001229,-0.00000342,-0.00000006,
 -0.00002053,0.00003591,0.00002396,0.00000705,-0.00002814,0.00002745,-0
 .00002282,-0.00002431,-0.00001517,0.00005986,0.00001916,-0.00001053,-0
 .00004859,-0.00000865,0.00000866,0.00000255,0.00000980,0.00000004,0.00
 001734,-0.00000416,-0.00000076,-0.00001199,-0.00000103,-0.00000037,-0.
 00000886,-0.00000501,-0.00000247,-0.00000765,0.00000626,0.00000027,0.0
 0000186,-0.00000193,-0.00000765,0.00000889,-0.00000124,-0.00001138,0.0
 0001511,0.00000438,-0.00000036,-0.00000768,-0.00000504,-0.00000938,0.0
 0000283,-0.00001027,-0.00000337,0.00001164,0.00000458,-0.00001340,-0.0
 0000531,0.00000533,0.00000516,0.00000035,0.00000559\\\@


 NEVER TEACH A PIG TO SING.
 IT WASTES YOUR TIME AND ANNOYS THE PIG.
     -- SEEN ON A GREETING CARD
 Job cpu time:       0 days  1 hours 54 minutes 58.0 seconds.
 Elapsed time:       0 days  0 hours  0 minutes 58.7 seconds.
 File lengths (MBytes):  RWF=    203 Int=      0 D2E=      0 Chk=     13 Scr=      2
 Normal termination of Gaussian 16 at Wed Jul 23 23:18:09 2025.
